 variables=iter,cl,cd,cm,clim,cdim,cmim,clip,cdip,cmip,cljm,cdjm,cmjm,cljp,cdjp,cmjp
 zone t ="coefhist", f=point
       1  6.045163E-05  1.326493E-02 -5.014423E-05  0.000000E+00  0.000000E+00  0.000000E+00  0.000000E+00  0.000000E+00  0.000000E+00  6.045163E-05  1.326493E-02 -5.014423E-05  0.000000E+00  0.000000E+00  0.000000E+00
      11  5.171933E-04  1.267919E-01 -3.931428E-04  0.000000E+00  0.000000E+00  0.000000E+00  0.000000E+00  0.000000E+00  0.000000E+00  5.171933E-04  1.267919E-01 -3.931428E-04  0.000000E+00  0.000000E+00  0.000000E+00
      21  7.595117E-04  1.931027E-01 -4.687488E-04  0.000000E+00  0.000000E+00  0.000000E+00  0.000000E+00  0.000000E+00  0.000000E+00  7.595117E-04  1.931027E-01 -4.687488E-04  0.000000E+00  0.000000E+00  0.000000E+00
      31  8.021909E-04  2.176332E-01 -4.272160E-04  0.000000E+00  0.000000E+00  0.000000E+00  0.000000E+00  0.000000E+00  0.000000E+00  8.021909E-04  2.176332E-01 -4.272160E-04  0.000000E+00  0.000000E+00  0.000000E+00
      41  8.868217E-04  2.173574E-01 -4.636753E-04  0.000000E+00  0.000000E+00  0.000000E+00  0.000000E+00  0.000000E+00  0.000000E+00  8.868217E-04  2.173574E-01 -4.636753E-04  0.000000E+00  0.000000E+00  0.000000E+00
      51  1.329877E-03  2.053226E-01 -6.945888E-04  0.000000E+00  0.000000E+00  0.000000E+00  0.000000E+00  0.000000E+00  0.000000E+00  1.329877E-03  2.053226E-01 -6.945888E-04  0.000000E+00  0.000000E+00  0.000000E+00
      61  2.135957E-03  1.883957E-01 -1.069187E-03  0.000000E+00  0.000000E+00  0.000000E+00  0.000000E+00  0.000000E+00  0.000000E+00  2.135957E-03  1.883957E-01 -1.069187E-03  0.000000E+00  0.000000E+00  0.000000E+00
      71  3.030531E-03  1.699717E-01 -1.430976E-03  0.000000E+00  0.000000E+00  0.000000E+00  0.000000E+00  0.000000E+00  0.000000E+00  3.030531E-03  1.699717E-01 -1.430976E-03  0.000000E+00  0.000000E+00  0.000000E+00
      81  3.764221E-03  1.516809E-01 -1.674633E-03  0.000000E+00  0.000000E+00  0.000000E+00  0.000000E+00  0.000000E+00  0.000000E+00  3.764221E-03  1.516809E-01 -1.674633E-03  0.000000E+00  0.000000E+00  0.000000E+00
      91  4.231455E-03  1.337764E-01 -1.788799E-03  0.000000E+00  0.000000E+00  0.000000E+00  0.000000E+00  0.000000E+00  0.000000E+00  4.231455E-03  1.337764E-01 -1.788799E-03  0.000000E+00  0.000000E+00  0.000000E+00
     101  4.418739E-03  1.154623E-01 -1.801647E-03  0.000000E+00  0.000000E+00  0.000000E+00  0.000000E+00  0.000000E+00  0.000000E+00  4.418739E-03  1.154623E-01 -1.801647E-03  0.000000E+00  0.000000E+00  0.000000E+00
     111  4.359738E-03  9.557544E-02 -1.734356E-03  0.000000E+00  0.000000E+00  0.000000E+00  0.000000E+00  0.000000E+00  0.000000E+00  4.359738E-03  9.557544E-02 -1.734356E-03  0.000000E+00  0.000000E+00  0.000000E+00
     121  4.139086E-03  7.330578E-02 -1.604632E-03  0.000000E+00  0.000000E+00  0.000000E+00  0.000000E+00  0.000000E+00  0.000000E+00  4.139086E-03  7.330578E-02 -1.604632E-03  0.000000E+00  0.000000E+00  0.000000E+00
     131  3.879124E-03  4.861123E-02 -1.448392E-03  0.000000E+00  0.000000E+00  0.000000E+00  0.000000E+00  0.000000E+00  0.000000E+00  3.879124E-03  4.861123E-02 -1.448392E-03  0.000000E+00  0.000000E+00  0.000000E+00
     141  3.680025E-03  2.223399E-02 -1.315336E-03  0.000000E+00  0.000000E+00  0.000000E+00  0.000000E+00  0.000000E+00  0.000000E+00  3.680025E-03  2.223399E-02 -1.315336E-03  0.000000E+00  0.000000E+00  0.000000E+00
     151  3.562331E-03 -4.560792E-03 -1.238516E-03  0.000000E+00  0.000000E+00  0.000000E+00  0.000000E+00  0.000000E+00  0.000000E+00  3.562331E-03 -4.560792E-03 -1.238516E-03  0.000000E+00  0.000000E+00  0.000000E+00
     161  3.464093E-03 -3.033692E-02 -1.214903E-03  0.000000E+00  0.000000E+00  0.000000E+00  0.000000E+00  0.000000E+00  0.000000E+00  3.464093E-03 -3.033692E-02 -1.214903E-03  0.000000E+00  0.000000E+00  0.000000E+00
     171  3.287360E-03 -5.378132E-02 -1.215130E-03  0.000000E+00  0.000000E+00  0.000000E+00  0.000000E+00  0.000000E+00  0.000000E+00  3.287360E-03 -5.378132E-02 -1.215130E-03  0.000000E+00  0.000000E+00  0.000000E+00
     181  2.945713E-03 -7.386314E-02 -1.203295E-03  0.000000E+00  0.000000E+00  0.000000E+00  0.000000E+00  0.000000E+00  0.000000E+00  2.945713E-03 -7.386314E-02 -1.203295E-03  0.000000E+00  0.000000E+00  0.000000E+00
     191  2.390968E-03 -8.989888E-02 -1.146623E-03  0.000000E+00  0.000000E+00  0.000000E+00  0.000000E+00  0.000000E+00  0.000000E+00  2.390968E-03 -8.989888E-02 -1.146623E-03  0.000000E+00  0.000000E+00  0.000000E+00
     201  1.641660E-03 -1.015571E-01 -1.023917E-03  0.000000E+00  0.000000E+00  0.000000E+00  0.000000E+00  0.000000E+00  0.000000E+00  1.641660E-03 -1.015571E-01 -1.023917E-03  0.000000E+00  0.000000E+00  0.000000E+00
     211  7.851051E-04 -1.087788E-01 -8.326646E-04  0.000000E+00  0.000000E+00  0.000000E+00  0.000000E+00  0.000000E+00  0.000000E+00  7.851051E-04 -1.087788E-01 -8.326646E-04  0.000000E+00  0.000000E+00  0.000000E+00
     221 -5.495432E-05 -1.116790E-01 -5.897918E-04  0.000000E+00  0.000000E+00  0.000000E+00  0.000000E+00  0.000000E+00  0.000000E+00 -5.495432E-05 -1.116790E-01 -5.897918E-04  0.000000E+00  0.000000E+00  0.000000E+00
     231 -7.687858E-04 -1.105058E-01 -3.231745E-04  0.000000E+00  0.000000E+00  0.000000E+00  0.000000E+00  0.000000E+00  0.000000E+00 -7.687858E-04 -1.105058E-01 -3.231745E-04  0.000000E+00  0.000000E+00  0.000000E+00
     241 -1.303246E-03 -1.056595E-01 -5.619579E-05  0.000000E+00  0.000000E+00  0.000000E+00  0.000000E+00  0.000000E+00  0.000000E+00 -1.303246E-03 -1.056595E-01 -5.619579E-05  0.000000E+00  0.000000E+00  0.000000E+00
     251 -1.674475E-03 -9.772101E-02  2.062933E-04  0.000000E+00  0.000000E+00  0.000000E+00  0.000000E+00  0.000000E+00  0.000000E+00 -1.674475E-03 -9.772101E-02  2.062933E-04  0.000000E+00  0.000000E+00  0.000000E+00
     261 -1.947948E-03 -8.744027E-02  4.809626E-04  0.000000E+00  0.000000E+00  0.000000E+00  0.000000E+00  0.000000E+00  0.000000E+00 -1.947948E-03 -8.744027E-02  4.809626E-04  0.000000E+00  0.000000E+00  0.000000E+00
     271 -2.203467E-03 -7.567277E-02  7.952263E-04  0.000000E+00  0.000000E+00  0.000000E+00  0.000000E+00  0.000000E+00  0.000000E+00 -2.203467E-03 -7.567277E-02  7.952263E-04  0.000000E+00  0.000000E+00  0.000000E+00
     281 -2.505473E-03 -6.328081E-02  1.168410E-03  0.000000E+00  0.000000E+00  0.000000E+00  0.000000E+00  0.000000E+00  0.000000E+00 -2.505473E-03 -6.328081E-02  1.168410E-03  0.000000E+00  0.000000E+00  0.000000E+00
     291 -2.885303E-03 -5.103456E-02  1.593715E-03  0.000000E+00  0.000000E+00  0.000000E+00  0.000000E+00  0.000000E+00  0.000000E+00 -2.885303E-03 -5.103456E-02  1.593715E-03  0.000000E+00  0.000000E+00  0.000000E+00
     301 -3.328596E-03 -3.954183E-02  2.027119E-03  0.000000E+00  0.000000E+00  0.000000E+00  0.000000E+00  0.000000E+00  0.000000E+00 -3.328596E-03 -3.954183E-02  2.027119E-03  0.000000E+00  0.000000E+00  0.000000E+00
     311 -3.765555E-03 -2.921997E-02  2.388643E-03  0.000000E+00  0.000000E+00  0.000000E+00  0.000000E+00  0.000000E+00  0.000000E+00 -3.765555E-03 -2.921997E-02  2.388643E-03  0.000000E+00  0.000000E+00  0.000000E+00
     321 -4.079428E-03 -2.030636E-02  2.583748E-03  0.000000E+00  0.000000E+00  0.000000E+00  0.000000E+00  0.000000E+00  0.000000E+00 -4.079428E-03 -2.030636E-02  2.583748E-03  0.000000E+00  0.000000E+00  0.000000E+00
     331 -4.149607E-03 -1.289361E-02  2.545328E-03  0.000000E+00  0.000000E+00  0.000000E+00  0.000000E+00  0.000000E+00  0.000000E+00 -4.149607E-03 -1.289361E-02  2.545328E-03  0.000000E+00  0.000000E+00  0.000000E+00
     341 -3.917137E-03 -6.973211E-03  2.276468E-03  0.000000E+00  0.000000E+00  0.000000E+00  0.000000E+00  0.000000E+00  0.000000E+00 -3.917137E-03 -6.973211E-03  2.276468E-03  0.000000E+00  0.000000E+00  0.000000E+00
     351 -3.426710E-03 -2.476470E-03  1.860471E-03  0.000000E+00  0.000000E+00  0.000000E+00  0.000000E+00  0.000000E+00  0.000000E+00 -3.426710E-03 -2.476470E-03  1.860471E-03  0.000000E+00  0.000000E+00  0.000000E+00
     361 -2.804719E-03  6.940672E-04  1.421497E-03  0.000000E+00  0.000000E+00  0.000000E+00  0.000000E+00  0.000000E+00  0.000000E+00 -2.804719E-03  6.940672E-04  1.421497E-03  0.000000E+00  0.000000E+00  0.000000E+00
     371 -2.184636E-03  2.647935E-03  1.058841E-03  0.000000E+00  0.000000E+00  0.000000E+00  0.000000E+00  0.000000E+00  0.000000E+00 -2.184636E-03  2.647935E-03  1.058841E-03  0.000000E+00  0.000000E+00  0.000000E+00
     381 -1.637404E-03  3.508693E-03  8.017687E-04  0.000000E+00  0.000000E+00  0.000000E+00  0.000000E+00  0.000000E+00  0.000000E+00 -1.637404E-03  3.508693E-03  8.017687E-04  0.000000E+00  0.000000E+00  0.000000E+00
     391 -1.157612E-03  3.430791E-03  6.151813E-04  0.000000E+00  0.000000E+00  0.000000E+00  0.000000E+00  0.000000E+00  0.000000E+00 -1.157612E-03  3.430791E-03  6.151813E-04  0.000000E+00  0.000000E+00  0.000000E+00
     401 -7.028268E-04  2.616667E-03  4.422276E-04  0.000000E+00  0.000000E+00  0.000000E+00  0.000000E+00  0.000000E+00  0.000000E+00 -7.028268E-04  2.616667E-03  4.422276E-04  0.000000E+00  0.000000E+00  0.000000E+00
     411 -2.427095E-04  1.317031E-03  2.461010E-04  0.000000E+00  0.000000E+00  0.000000E+00  0.000000E+00  0.000000E+00  0.000000E+00 -2.427095E-04  1.317031E-03  2.461010E-04  0.000000E+00  0.000000E+00  0.000000E+00
     421  2.196960E-04 -1.925697E-04  2.460857E-05  0.000000E+00  0.000000E+00  0.000000E+00  0.000000E+00  0.000000E+00  0.000000E+00  2.196960E-04 -1.925697E-04  2.460857E-05  0.000000E+00  0.000000E+00  0.000000E+00
     431  6.584271E-04 -1.651426E-03 -2.006496E-04  0.000000E+00  0.000000E+00  0.000000E+00  0.000000E+00  0.000000E+00  0.000000E+00  6.584271E-04 -1.651426E-03 -2.006496E-04  0.000000E+00  0.000000E+00  0.000000E+00
     441  1.046559E-03 -2.852688E-03 -4.020839E-04  0.000000E+00  0.000000E+00  0.000000E+00  0.000000E+00  0.000000E+00  0.000000E+00  1.046559E-03 -2.852688E-03 -4.020839E-04  0.000000E+00  0.000000E+00  0.000000E+00
     451  1.367342E-03 -3.667212E-03 -5.591121E-04  0.000000E+00  0.000000E+00  0.000000E+00  0.000000E+00  0.000000E+00  0.000000E+00  1.367342E-03 -3.667212E-03 -5.591121E-04  0.000000E+00  0.000000E+00  0.000000E+00
     461  1.606075E-03 -4.057916E-03 -6.602137E-04  0.000000E+00  0.000000E+00  0.000000E+00  0.000000E+00  0.000000E+00  0.000000E+00  1.606075E-03 -4.057916E-03 -6.602137E-04  0.000000E+00  0.000000E+00  0.000000E+00
     471  1.758612E-03 -4.068497E-03 -7.035656E-04  0.000000E+00  0.000000E+00  0.000000E+00  0.000000E+00  0.000000E+00  0.000000E+00  1.758612E-03 -4.068497E-03 -7.035656E-04  0.000000E+00  0.000000E+00  0.000000E+00
     481  1.827634E-03 -3.788592E-03 -6.951859E-04  0.000000E+00  0.000000E+00  0.000000E+00  0.000000E+00  0.000000E+00  0.000000E+00  1.827634E-03 -3.788592E-03 -6.951859E-04  0.000000E+00  0.000000E+00  0.000000E+00
     491  1.818127E-03 -3.301972E-03 -6.458701E-04  0.000000E+00  0.000000E+00  0.000000E+00  0.000000E+00  0.000000E+00  0.000000E+00  1.818127E-03 -3.301972E-03 -6.458701E-04  0.000000E+00  0.000000E+00  0.000000E+00
     501  1.739099E-03 -2.628865E-03 -5.686955E-04  0.000000E+00  0.000000E+00  0.000000E+00  0.000000E+00  0.000000E+00  0.000000E+00  1.739099E-03 -2.628865E-03 -5.686955E-04  0.000000E+00  0.000000E+00  0.000000E+00
     511  1.608955E-03 -1.687365E-03 -4.768565E-04  0.000000E+00  0.000000E+00  0.000000E+00  0.000000E+00  0.000000E+00  0.000000E+00  1.608955E-03 -1.687365E-03 -4.768565E-04  0.000000E+00  0.000000E+00  0.000000E+00
     521  1.459352E-03 -3.061878E-04 -3.818130E-04  0.000000E+00  0.000000E+00  0.000000E+00  0.000000E+00  0.000000E+00  0.000000E+00  1.459352E-03 -3.061878E-04 -3.818130E-04  0.000000E+00  0.000000E+00  0.000000E+00
     531  1.332327E-03  1.691410E-03 -2.924105E-04  0.000000E+00  0.000000E+00  0.000000E+00  0.000000E+00  0.000000E+00  0.000000E+00  1.332327E-03  1.691410E-03 -2.924105E-04  0.000000E+00  0.000000E+00  0.000000E+00
     541  1.268464E-03  4.356365E-03 -2.157049E-04  0.000000E+00  0.000000E+00  0.000000E+00  0.000000E+00  0.000000E+00  0.000000E+00  1.268464E-03  4.356365E-03 -2.157049E-04  0.000000E+00  0.000000E+00  0.000000E+00
     551  1.288268E-03  7.503701E-03 -1.586906E-04  0.000000E+00  0.000000E+00  0.000000E+00  0.000000E+00  0.000000E+00  0.000000E+00  1.288268E-03  7.503701E-03 -1.586906E-04  0.000000E+00  0.000000E+00  0.000000E+00
     561  1.375347E-03  1.069215E-02 -1.293492E-04  0.000000E+00  0.000000E+00  0.000000E+00  0.000000E+00  0.000000E+00  0.000000E+00  1.375347E-03  1.069215E-02 -1.293492E-04  0.000000E+00  0.000000E+00  0.000000E+00
     571  1.472094E-03  1.331155E-02 -1.355483E-04  0.000000E+00  0.000000E+00  0.000000E+00  0.000000E+00  0.000000E+00  0.000000E+00  1.472094E-03  1.331155E-02 -1.355483E-04  0.000000E+00  0.000000E+00  0.000000E+00
     581  1.496327E-03  1.474394E-02 -1.815142E-04  0.000000E+00  0.000000E+00  0.000000E+00  0.000000E+00  0.000000E+00  0.000000E+00  1.496327E-03  1.474394E-02 -1.815142E-04  0.000000E+00  0.000000E+00  0.000000E+00
     591  1.378700E-03  1.454042E-02 -2.639182E-04  0.000000E+00  0.000000E+00  0.000000E+00  0.000000E+00  0.000000E+00  0.000000E+00  1.378700E-03  1.454042E-02 -2.639182E-04  0.000000E+00  0.000000E+00  0.000000E+00
     601  1.105023E-03  1.255213E-02 -3.702666E-04  0.000000E+00  0.000000E+00  0.000000E+00  0.000000E+00  0.000000E+00  0.000000E+00  1.105023E-03  1.255213E-02 -3.702666E-04  0.000000E+00  0.000000E+00  0.000000E+00
     611  7.352552E-04  8.969233E-03 -4.811399E-04  0.000000E+00  0.000000E+00  0.000000E+00  0.000000E+00  0.000000E+00  0.000000E+00  7.352552E-04  8.969233E-03 -4.811399E-04  0.000000E+00  0.000000E+00  0.000000E+00
     621  3.781052E-04  4.254865E-03 -5.746630E-04  0.000000E+00  0.000000E+00  0.000000E+00  0.000000E+00  0.000000E+00  0.000000E+00  3.781052E-04  4.254865E-03 -5.746630E-04  0.000000E+00  0.000000E+00  0.000000E+00
     631  1.309412E-04 -9.953215E-04 -6.302534E-04  0.000000E+00  0.000000E+00  0.000000E+00  0.000000E+00  0.000000E+00  0.000000E+00  1.309412E-04 -9.953215E-04 -6.302534E-04  0.000000E+00  0.000000E+00  0.000000E+00
     641  2.662752E-05 -6.208752E-03 -6.313303E-04  0.000000E+00  0.000000E+00  0.000000E+00  0.000000E+00  0.000000E+00  0.000000E+00  2.662752E-05 -6.208752E-03 -6.313303E-04  0.000000E+00  0.000000E+00  0.000000E+00
     651  2.581613E-05 -1.095174E-02 -5.692269E-04  0.000000E+00  0.000000E+00  0.000000E+00  0.000000E+00  0.000000E+00  0.000000E+00  2.581613E-05 -1.095174E-02 -5.692269E-04  0.000000E+00  0.000000E+00  0.000000E+00
     661  5.450998E-05 -1.498075E-02 -4.481947E-04  0.000000E+00  0.000000E+00  0.000000E+00  0.000000E+00  0.000000E+00  0.000000E+00  5.450998E-05 -1.498075E-02 -4.481947E-04  0.000000E+00  0.000000E+00  0.000000E+00
     671  5.167961E-05 -1.823453E-02 -2.870911E-04  0.000000E+00  0.000000E+00  0.000000E+00  0.000000E+00  0.000000E+00  0.000000E+00  5.167961E-05 -1.823453E-02 -2.870911E-04  0.000000E+00  0.000000E+00  0.000000E+00
     681 -7.010662E-06 -2.078728E-02 -1.139398E-04  0.000000E+00  0.000000E+00  0.000000E+00  0.000000E+00  0.000000E+00  0.000000E+00 -7.010662E-06 -2.078728E-02 -1.139398E-04  0.000000E+00  0.000000E+00  0.000000E+00
     691 -1.151155E-04 -2.278401E-02  4.463806E-05  0.000000E+00  0.000000E+00  0.000000E+00  0.000000E+00  0.000000E+00  0.000000E+00 -1.151155E-04 -2.278401E-02  4.463806E-05  0.000000E+00  0.000000E+00  0.000000E+00
     701 -2.536800E-04 -2.437636E-02  1.725575E-04  0.000000E+00  0.000000E+00  0.000000E+00  0.000000E+00  0.000000E+00  0.000000E+00 -2.536800E-04 -2.437636E-02  1.725575E-04  0.000000E+00  0.000000E+00  0.000000E+00
     711 -4.041377E-04 -2.567376E-02  2.668506E-04  0.000000E+00  0.000000E+00  0.000000E+00  0.000000E+00  0.000000E+00  0.000000E+00 -4.041377E-04 -2.567376E-02  2.668506E-04  0.000000E+00  0.000000E+00  0.000000E+00
     721 -5.513473E-04 -2.671976E-02  3.339088E-04  0.000000E+00  0.000000E+00  0.000000E+00  0.000000E+00  0.000000E+00  0.000000E+00 -5.513473E-04 -2.671976E-02  3.339088E-04  0.000000E+00  0.000000E+00  0.000000E+00
     731 -6.823529E-04 -2.749631E-02  3.831213E-04  0.000000E+00  0.000000E+00  0.000000E+00  0.000000E+00  0.000000E+00  0.000000E+00 -6.823529E-04 -2.749631E-02  3.831213E-04  0.000000E+00  0.000000E+00  0.000000E+00
     741 -7.871299E-04 -2.794938E-02  4.223110E-04  0.000000E+00  0.000000E+00  0.000000E+00  0.000000E+00  0.000000E+00  0.000000E+00 -7.871299E-04 -2.794938E-02  4.223110E-04  0.000000E+00  0.000000E+00  0.000000E+00
     751 -8.609907E-04 -2.802329E-02  4.562143E-04  0.000000E+00  0.000000E+00  0.000000E+00  0.000000E+00  0.000000E+00  0.000000E+00 -8.609907E-04 -2.802329E-02  4.562143E-04  0.000000E+00  0.000000E+00  0.000000E+00
     761 -9.060123E-04 -2.769020E-02  4.868646E-04  0.000000E+00  0.000000E+00  0.000000E+00  0.000000E+00  0.000000E+00  0.000000E+00 -9.060123E-04 -2.769020E-02  4.868646E-04  0.000000E+00  0.000000E+00  0.000000E+00
     771 -9.292463E-04 -2.696526E-02  5.145072E-04  0.000000E+00  0.000000E+00  0.000000E+00  0.000000E+00  0.000000E+00  0.000000E+00 -9.292463E-04 -2.696526E-02  5.145072E-04  0.000000E+00  0.000000E+00  0.000000E+00
     781 -9.385027E-04 -2.590496E-02  5.381559E-04  0.000000E+00  0.000000E+00  0.000000E+00  0.000000E+00  0.000000E+00  0.000000E+00 -9.385027E-04 -2.590496E-02  5.381559E-04  0.000000E+00  0.000000E+00  0.000000E+00
     791 -9.386864E-04 -2.459237E-02  5.560402E-04  0.000000E+00  0.000000E+00  0.000000E+00  0.000000E+00  0.000000E+00  0.000000E+00 -9.386864E-04 -2.459237E-02  5.560402E-04  0.000000E+00  0.000000E+00  0.000000E+00
     801 -9.306166E-04 -2.311674E-02  5.662743E-04  0.000000E+00  0.000000E+00  0.000000E+00  0.000000E+00  0.000000E+00  0.000000E+00 -9.306166E-04 -2.311674E-02  5.662743E-04  0.000000E+00  0.000000E+00  0.000000E+00
     811 -9.125431E-04 -2.155546E-02  5.677676E-04  0.000000E+00  0.000000E+00  0.000000E+00  0.000000E+00  0.000000E+00  0.000000E+00 -9.125431E-04 -2.155546E-02  5.677676E-04  0.000000E+00  0.000000E+00  0.000000E+00
     821 -8.829628E-04 -1.996397E-02  5.609779E-04  0.000000E+00  0.000000E+00  0.000000E+00  0.000000E+00  0.000000E+00  0.000000E+00 -8.829628E-04 -1.996397E-02  5.609779E-04  0.000000E+00  0.000000E+00  0.000000E+00
     831 -8.430223E-04 -1.837555E-02  5.480804E-04  0.000000E+00  0.000000E+00  0.000000E+00  0.000000E+00  0.000000E+00  0.000000E+00 -8.430223E-04 -1.837555E-02  5.480804E-04  0.000000E+00  0.000000E+00  0.000000E+00
     841 -7.973118E-04 -1.680870E-02  5.323991E-04  0.000000E+00  0.000000E+00  0.000000E+00  0.000000E+00  0.000000E+00  0.000000E+00 -7.973118E-04 -1.680870E-02  5.323991E-04  0.000000E+00  0.000000E+00  0.000000E+00
     851 -7.526505E-04 -1.527776E-02  5.172055E-04  0.000000E+00  0.000000E+00  0.000000E+00  0.000000E+00  0.000000E+00  0.000000E+00 -7.526505E-04 -1.527776E-02  5.172055E-04  0.000000E+00  0.000000E+00  0.000000E+00
     861 -7.153331E-04 -1.380161E-02  5.041970E-04  0.000000E+00  0.000000E+00  0.000000E+00  0.000000E+00  0.000000E+00  0.000000E+00 -7.153331E-04 -1.380161E-02  5.041970E-04  0.000000E+00  0.000000E+00  0.000000E+00
     871 -6.879972E-04 -1.240717E-02  4.921608E-04  0.000000E+00  0.000000E+00  0.000000E+00  0.000000E+00  0.000000E+00  0.000000E+00 -6.879972E-04 -1.240717E-02  4.921608E-04  0.000000E+00  0.000000E+00  0.000000E+00
     881 -6.675295E-04 -1.112703E-02  4.764367E-04  0.000000E+00  0.000000E+00  0.000000E+00  0.000000E+00  0.000000E+00  0.000000E+00 -6.675295E-04 -1.112703E-02  4.764367E-04  0.000000E+00  0.000000E+00  0.000000E+00
     891 -6.450309E-04 -9.992895E-03  4.496379E-04  0.000000E+00  0.000000E+00  0.000000E+00  0.000000E+00  0.000000E+00  0.000000E+00 -6.450309E-04 -9.992895E-03  4.496379E-04  0.000000E+00  0.000000E+00  0.000000E+00
     901 -6.082591E-04 -9.028300E-03  4.036825E-04  0.000000E+00  0.000000E+00  0.000000E+00  0.000000E+00  0.000000E+00  0.000000E+00 -6.082591E-04 -9.028300E-03  4.036825E-04  0.000000E+00  0.000000E+00  0.000000E+00
     911 -5.455201E-04 -8.243472E-03  3.327032E-04  0.000000E+00  0.000000E+00  0.000000E+00  0.000000E+00  0.000000E+00  0.000000E+00 -5.455201E-04 -8.243472E-03  3.327032E-04  0.000000E+00  0.000000E+00  0.000000E+00
     921 -4.496476E-04 -7.633992E-03  2.356307E-04  0.000000E+00  0.000000E+00  0.000000E+00  0.000000E+00  0.000000E+00  0.000000E+00 -4.496476E-04 -7.633992E-03  2.356307E-04  0.000000E+00  0.000000E+00  0.000000E+00
     931 -3.206806E-04 -7.183393E-03  1.173350E-04  0.000000E+00  0.000000E+00  0.000000E+00  0.000000E+00  0.000000E+00  0.000000E+00 -3.206806E-04 -7.183393E-03  1.173350E-04  0.000000E+00  0.000000E+00  0.000000E+00
     941 -1.661126E-04 -6.868256E-03 -1.207644E-05  0.000000E+00  0.000000E+00  0.000000E+00  0.000000E+00  0.000000E+00  0.000000E+00 -1.661126E-04 -6.868256E-03 -1.207644E-05  0.000000E+00  0.000000E+00  0.000000E+00
     951  1.600194E-06 -6.663533E-03 -1.398812E-04  0.000000E+00  0.000000E+00  0.000000E+00  0.000000E+00  0.000000E+00  0.000000E+00  1.600194E-06 -6.663533E-03 -1.398812E-04  0.000000E+00  0.000000E+00  0.000000E+00
     961  1.686441E-04 -6.546756E-03 -2.541956E-04  0.000000E+00  0.000000E+00  0.000000E+00  0.000000E+00  0.000000E+00  0.000000E+00  1.686441E-04 -6.546756E-03 -2.541956E-04  0.000000E+00  0.000000E+00  0.000000E+00
     971  3.234428E-04 -6.500251E-03 -3.467491E-04  0.000000E+00  0.000000E+00  0.000000E+00  0.000000E+00  0.000000E+00  0.000000E+00  3.234428E-04 -6.500251E-03 -3.467491E-04  0.000000E+00  0.000000E+00  0.000000E+00
     981  4.588606E-04 -6.511513E-03 -4.143065E-04  0.000000E+00  0.000000E+00  0.000000E+00  0.000000E+00  0.000000E+00  0.000000E+00  4.588606E-04 -6.511513E-03 -4.143065E-04  0.000000E+00  0.000000E+00  0.000000E+00
     991  5.723371E-04 -6.572671E-03 -4.581919E-04  0.000000E+00  0.000000E+00  0.000000E+00  0.000000E+00  0.000000E+00  0.000000E+00  5.723371E-04 -6.572671E-03 -4.581919E-04  0.000000E+00  0.000000E+00  0.000000E+00
    1001  6.645650E-04 -6.679507E-03 -4.826082E-04  0.000000E+00  0.000000E+00  0.000000E+00  0.000000E+00  0.000000E+00  0.000000E+00  6.645650E-04 -6.679507E-03 -4.826082E-04  0.000000E+00  0.000000E+00  0.000000E+00
    1011  7.375185E-04 -6.830684E-03 -4.926207E-04  0.000000E+00  0.000000E+00  0.000000E+00  0.000000E+00  0.000000E+00  0.000000E+00  7.375185E-04 -6.830684E-03 -4.926207E-04  0.000000E+00  0.000000E+00  0.000000E+00
    1021  7.927308E-04 -7.027260E-03 -4.925331E-04  0.000000E+00  0.000000E+00  0.000000E+00  0.000000E+00  0.000000E+00  0.000000E+00  7.927308E-04 -7.027260E-03 -4.925331E-04  0.000000E+00  0.000000E+00  0.000000E+00
    1031  8.305952E-04 -7.272080E-03 -4.850486E-04  0.000000E+00  0.000000E+00  0.000000E+00  0.000000E+00  0.000000E+00  0.000000E+00  8.305952E-04 -7.272080E-03 -4.850486E-04  0.000000E+00  0.000000E+00  0.000000E+00
    1041  8.505184E-04 -7.568897E-03 -4.713087E-04  0.000000E+00  0.000000E+00  0.000000E+00  0.000000E+00  0.000000E+00  0.000000E+00  8.505184E-04 -7.568897E-03 -4.713087E-04  0.000000E+00  0.000000E+00  0.000000E+00
    1051  8.515501E-04 -7.921087E-03 -4.514403E-04  0.000000E+00  0.000000E+00  0.000000E+00  0.000000E+00  0.000000E+00  0.000000E+00  8.515501E-04 -7.921087E-03 -4.514403E-04  0.000000E+00  0.000000E+00  0.000000E+00
    1061  8.331058E-04 -8.329917E-03 -4.252067E-04  0.000000E+00  0.000000E+00  0.000000E+00  0.000000E+00  0.000000E+00  0.000000E+00  8.331058E-04 -8.329917E-03 -4.252067E-04  0.000000E+00  0.000000E+00  0.000000E+00
    1071  7.956613E-04 -8.792578E-03 -3.926173E-04  0.000000E+00  0.000000E+00  0.000000E+00  0.000000E+00  0.000000E+00  0.000000E+00  7.956613E-04 -8.792578E-03 -3.926173E-04  0.000000E+00  0.000000E+00  0.000000E+00
    1081  7.411985E-04 -9.300329E-03 -3.543260E-04  0.000000E+00  0.000000E+00  0.000000E+00  0.000000E+00  0.000000E+00  0.000000E+00  7.411985E-04 -9.300329E-03 -3.543260E-04  0.000000E+00  0.000000E+00  0.000000E+00
    1091  6.733503E-04 -9.837565E-03 -3.117224E-04  0.000000E+00  0.000000E+00  0.000000E+00  0.000000E+00  0.000000E+00  0.000000E+00  6.733503E-04 -9.837565E-03 -3.117224E-04  0.000000E+00  0.000000E+00  0.000000E+00
    1101  5.971889E-04 -1.038280E-02 -2.668125E-04  0.000000E+00  0.000000E+00  0.000000E+00  0.000000E+00  0.000000E+00  0.000000E+00  5.971889E-04 -1.038280E-02 -2.668125E-04  0.000000E+00  0.000000E+00  0.000000E+00
    1111  5.185305E-04 -1.091221E-02 -2.219580E-04  0.000000E+00  0.000000E+00  0.000000E+00  0.000000E+00  0.000000E+00  0.000000E+00  5.185305E-04 -1.091221E-02 -2.219580E-04  0.000000E+00  0.000000E+00  0.000000E+00
    1121  4.427508E-04 -1.140551E-02 -1.795631E-04  0.000000E+00  0.000000E+00  0.000000E+00  0.000000E+00  0.000000E+00  0.000000E+00  4.427508E-04 -1.140551E-02 -1.795631E-04  0.000000E+00  0.000000E+00  0.000000E+00
    1131  3.732767E-04 -1.185270E-02 -1.417530E-04  0.000000E+00  0.000000E+00  0.000000E+00  0.000000E+00  0.000000E+00  0.000000E+00  3.732767E-04 -1.185270E-02 -1.417530E-04  0.000000E+00  0.000000E+00  0.000000E+00
    1141  3.102580E-04 -1.225917E-02 -1.100876E-04  0.000000E+00  0.000000E+00  0.000000E+00  0.000000E+00  0.000000E+00  0.000000E+00  3.102580E-04 -1.225917E-02 -1.100876E-04  0.000000E+00  0.000000E+00  0.000000E+00
    1151  2.501486E-04 -1.264634E-02 -8.536829E-05  0.000000E+00  0.000000E+00  0.000000E+00  0.000000E+00  0.000000E+00  0.000000E+00  2.501486E-04 -1.264634E-02 -8.536829E-05  0.000000E+00  0.000000E+00  0.000000E+00
    1161  1.866103E-04 -1.304662E-02 -6.746930E-05  0.000000E+00  0.000000E+00  0.000000E+00  0.000000E+00  0.000000E+00  0.000000E+00  1.866103E-04 -1.304662E-02 -6.746930E-05  0.000000E+00  0.000000E+00  0.000000E+00
    1171  1.128250E-04 -1.349350E-02 -5.523774E-05  0.000000E+00  0.000000E+00  0.000000E+00  0.000000E+00  0.000000E+00  0.000000E+00  1.128250E-04 -1.349350E-02 -5.523774E-05  0.000000E+00  0.000000E+00  0.000000E+00
    1181  2.454494E-05 -1.400967E-02 -4.652774E-05  0.000000E+00  0.000000E+00  0.000000E+00  0.000000E+00  0.000000E+00  0.000000E+00  2.454494E-05 -1.400967E-02 -4.652774E-05  0.000000E+00  0.000000E+00  0.000000E+00
    1191 -7.737611E-05 -1.459733E-02 -3.843847E-05  0.000000E+00  0.000000E+00  0.000000E+00  0.000000E+00  0.000000E+00  0.000000E+00 -7.737611E-05 -1.459733E-02 -3.843847E-05  0.000000E+00  0.000000E+00  0.000000E+00
    1201 -1.862973E-04 -1.523416E-02 -2.777313E-05  0.000000E+00  0.000000E+00  0.000000E+00  0.000000E+00  0.000000E+00  0.000000E+00 -1.862973E-04 -1.523416E-02 -2.777313E-05  0.000000E+00  0.000000E+00  0.000000E+00
    1211 -2.915252E-04 -1.587651E-02 -1.161921E-05  0.000000E+00  0.000000E+00  0.000000E+00  0.000000E+00  0.000000E+00  0.000000E+00 -2.915252E-04 -1.587651E-02 -1.161921E-05  0.000000E+00  0.000000E+00  0.000000E+00
    1221 -3.818486E-04 -1.646880E-02  1.193800E-05  0.000000E+00  0.000000E+00  0.000000E+00  0.000000E+00  0.000000E+00  0.000000E+00 -3.818486E-04 -1.646880E-02  1.193800E-05  0.000000E+00  0.000000E+00  0.000000E+00
    1231 -4.493565E-04 -1.695594E-02  4.327562E-05  0.000000E+00  0.000000E+00  0.000000E+00  0.000000E+00  0.000000E+00  0.000000E+00 -4.493565E-04 -1.695594E-02  4.327562E-05  0.000000E+00  0.000000E+00  0.000000E+00
    1241 -4.916928E-04 -1.729499E-02  8.097900E-05  0.000000E+00  0.000000E+00  0.000000E+00  0.000000E+00  0.000000E+00  0.000000E+00 -4.916928E-04 -1.729499E-02  8.097900E-05  0.000000E+00  0.000000E+00  0.000000E+00
    1251 -5.118922E-04 -1.746274E-02  1.219682E-04  0.000000E+00  0.000000E+00  0.000000E+00  0.000000E+00  0.000000E+00  0.000000E+00 -5.118922E-04 -1.746274E-02  1.219682E-04  0.000000E+00  0.000000E+00  0.000000E+00
    1261 -5.162385E-04 -1.745771E-02  1.620465E-04  0.000000E+00  0.000000E+00  0.000000E+00  0.000000E+00  0.000000E+00  0.000000E+00 -5.162385E-04 -1.745771E-02  1.620465E-04  0.000000E+00  0.000000E+00  0.000000E+00
    1271 -5.114595E-04 -1.729700E-02  1.967851E-04  0.000000E+00  0.000000E+00  0.000000E+00  0.000000E+00  0.000000E+00  0.000000E+00 -5.114595E-04 -1.729700E-02  1.967851E-04  0.000000E+00  0.000000E+00  0.000000E+00
    1281 -5.025806E-04 -1.700982E-02  2.225144E-04  0.000000E+00  0.000000E+00  0.000000E+00  0.000000E+00  0.000000E+00  0.000000E+00 -5.025806E-04 -1.700982E-02  2.225144E-04  0.000000E+00  0.000000E+00  0.000000E+00
    1291 -4.920840E-04 -1.662998E-02  2.371188E-04  0.000000E+00  0.000000E+00  0.000000E+00  0.000000E+00  0.000000E+00  0.000000E+00 -4.920840E-04 -1.662998E-02  2.371188E-04  0.000000E+00  0.000000E+00  0.000000E+00
    1301 -4.802179E-04 -1.618945E-02  2.403714E-04  0.000000E+00  0.000000E+00  0.000000E+00  0.000000E+00  0.000000E+00  0.000000E+00 -4.802179E-04 -1.618945E-02  2.403714E-04  0.000000E+00  0.000000E+00  0.000000E+00
    1311 -4.658793E-04 -1.571430E-02  2.337238E-04  0.000000E+00  0.000000E+00  0.000000E+00  0.000000E+00  0.000000E+00  0.000000E+00 -4.658793E-04 -1.571430E-02  2.337238E-04  0.000000E+00  0.000000E+00  0.000000E+00
    1321 -4.475231E-04 -1.522330E-02  2.196718E-04  0.000000E+00  0.000000E+00  0.000000E+00  0.000000E+00  0.000000E+00  0.000000E+00 -4.475231E-04 -1.522330E-02  2.196718E-04  0.000000E+00  0.000000E+00  0.000000E+00
    1331 -4.238270E-04 -1.472883E-02  2.009658E-04  0.000000E+00  0.000000E+00  0.000000E+00  0.000000E+00  0.000000E+00  0.000000E+00 -4.238270E-04 -1.472883E-02  2.009658E-04  0.000000E+00  0.000000E+00  0.000000E+00
    1341 -3.940745E-04 -1.423914E-02  1.799429E-04  0.000000E+00  0.000000E+00  0.000000E+00  0.000000E+00  0.000000E+00  0.000000E+00 -3.940745E-04 -1.423914E-02  1.799429E-04  0.000000E+00  0.000000E+00  0.000000E+00
    1351 -3.583110E-04 -1.376083E-02  1.581568E-04  0.000000E+00  0.000000E+00  0.000000E+00  0.000000E+00  0.000000E+00  0.000000E+00 -3.583110E-04 -1.376083E-02  1.581568E-04  0.000000E+00  0.000000E+00  0.000000E+00