 variables = x,y,"-cp"
 zone t="Cp_jmin_000"
  0.999950519027277      -7.190906577662312E-006 -0.244517553503426     
  0.999848425210164      -2.202786431364317E-005 -0.244602844300697     
  0.999739869675704      -3.780065359317234E-005 -0.244714927131340     
  0.999624444703074      -5.456621763246607E-005 -0.244832661481375     
  0.999501717822151      -7.239028412913358E-005 -0.244990195119027     
  0.999371229373061      -9.134159109748993E-005 -0.245145298000654     
  0.999232490696408      -1.114911082996622E-004 -0.245363388901300     
  0.999084982597171      -1.329138319585390E-004 -0.245574901026266     
  0.998928151520885      -1.556755472222239E-004 -0.245874629000716     
  0.998761411599954      -1.798608015831939E-004 -0.246162691689729     
  0.998584142577041      -2.055732787485144E-004 -0.246565317771893     
  0.998395683636583      -2.329088285446009E-004 -0.246949636271934     
  0.998195333020306      -2.619692394466767E-004 -0.247475612535852     
  0.997982345559863      -2.928625964649977E-004 -0.247973561575581     
  0.997755927276180      -3.256843802971508E-004 -0.248640141004612     
  0.997515236117857      -3.605419618973648E-004 -0.249266640167740     
  0.997259382938519      -3.975818247866957E-004 -0.250085829259806     
  0.996987423131747      -4.369534440111178E-004 -0.250849886079958     
  0.996698352306457      -4.788022252603622E-004 -0.251828693756657     
  0.996391104685071      -5.232824611467383E-004 -0.252733475642030     
  0.996064545310489      -5.705287757017173E-004 -0.253871567673898     
  0.995717469545085      -6.206793334300211E-004 -0.254915325140611     
  0.995348608774151      -6.739433404937623E-004 -0.256204250323401     
  0.994956618372158      -7.305472983714197E-004 -0.257373787137002     
  0.994540067843589      -7.906977726002855E-004 -0.258797877485863     
  0.994097440802924      -8.546137313532310E-004 -0.260071368025563     
  0.993627115299513      -9.224242087524622E-004 -0.261607006991873     
  0.993127386684681      -9.943626485937631E-004 -0.262959983382528     
  0.992596464885565      -1.070785363111593E-003 -0.264565363892578     
  0.992032440159447      -1.151973027089561E-003 -0.265959630800366     
  0.991433288916790      -1.238211753831788E-003 -0.267587384996303     
  0.990796845563836      -1.329639625047849E-003 -0.268978872863499     
  0.990120843598399      -1.426576958121088E-003 -0.270581962212663     
  0.989402909161396      -1.529527323952683E-003 -0.271902392475654     
  0.988640507745154      -1.638854165885872E-003 -0.273411316487055     
  0.987830936170727      -1.754773418841899E-003 -0.274600042473596     
  0.986971348521761      -1.877585647353976E-003 -0.275950516925864     
  0.986058776549836      -2.007870996242764E-003 -0.276928012771557     
  0.985090076270552      -2.146169626638874E-003 -0.278022333758371     
  0.984061878782684      -2.292691610911109E-003 -0.278713847206562     
  0.982970652698721      -2.447811032850026E-003 -0.279482684011684     
  0.981812729093725      -2.612298116371279E-003 -0.279786559906525     
  0.980584210328237      -2.786736062434320E-003 -0.280112929643086     
  0.979280925188388      -2.971262202179466E-003 -0.279958171991732     
  0.977898557719227      -3.166534808728978E-003 -0.279773072678216     
  0.976432621979564      -3.373612231559043E-003 -0.279009567598543     
  0.974878255807105      -3.592549695914168E-003 -0.278225000891020     
  0.973230431824570      -3.823950261951274E-003 -0.276822112329487     
  0.971483973629757      -4.069132613147735E-003 -0.275267091616853     
  0.969633266134774      -4.328118765340954E-003 -0.273140197618653     
  0.967672524401831      -4.601598941976932E-003 -0.270809360840123     
  0.965595797706436      -4.891000631062736E-003 -0.267780771021211     
  0.963396661946770      -5.196322023475735E-003 -0.264621863579833     
  0.961068558213988      -5.518593757245423E-003 -0.260680856245394     
  0.958604645181734      -5.858830942331594E-003 -0.256546885510261     
  0.955997710370829      -6.217413840325518E-003 -0.251711533984720     
  0.953240403573188      -6.595771835954957E-003 -0.246513225953736     
  0.950324929075312      -6.994133435052222E-003 -0.240765373039263     
  0.947243363824026      -7.413828030933448E-003 -0.234503739316168     
  0.943987401243017      -7.855348486410833E-003 -0.227804759401982     
  0.940548532638629      -8.319645947101835E-003 -0.220545997928638     
  0.936918012072206      -8.807758307222305E-003 -0.212879679622628     
  0.933086820659709      -9.320470120943454E-003 -0.204663287708349     
  0.929045729434505      -9.858610535367778E-003 -0.196101749412486     
  0.924785335229135      -1.042319342430887E-002 -0.186970525565204     
  0.920296001506855      -1.101473943138070E-002 -0.177613608583171     
  0.915568017057546      -1.163428261837557E-002 -0.167687258863336     
  0.910591518904826      -1.228247798053474E-002 -0.157589135122879     
  0.905356539043862      -1.295968439299040E-002 -0.147104080181082     
  0.899853259637222      -1.366754916491486E-002 -0.136279093035716     
  0.894071612625420      -1.440553140223065E-002 -0.125431013740043     
  0.888001926144578      -1.517548130265305E-002 -0.114026177503006     
  0.881634354807102      -1.597666973363707E-002 -0.102832830863901     
  0.874959361825577      -1.680904248481468E-002 -9.133845733281998E-002
  0.867968048991337      -1.767527645861696E-002 -7.966287583071496E-002
  0.860651278709354      -1.857306609199097E-002 -6.814239249106668E-002
  0.853000640736535      -1.950219720676840E-002 -5.657476356980995E-002
  0.845008605117864      -2.046510145424237E-002 -4.486664155848041E-002
  0.836667790252263      -2.146004270692975E-002 -3.334384863318851E-002
  0.827971583017262      -2.248531546583624E-002 -2.189928193723345E-002
  0.818914520771597      -2.354162889368912E-002 -1.056183473013217E-002
  0.809492049394791      -2.462921101698074E-002  7.721329180290226E-004
  0.799700455259611      -2.574622884337473E-002  1.196637476605567E-002
  0.789537101723147      -2.688979892317225E-002  2.288974973938895E-002
  0.779000884847340      -2.805910063978264E-002  3.368494505008268E-002
  0.768092166110161      -2.925391921276573E-002  4.437100789641257E-002
  0.756812605590837      -3.047225173673933E-002  5.492318308431332E-002
  0.745165431436640      -3.171185038487789E-002  6.536316639455930E-002
  0.733155517081819      -3.297015436139106E-002  7.575317886942012E-002
  0.720789313138657      -3.424288317751308E-002  8.581776737853897E-002
  0.708075228679919      -3.552715818510261E-002  9.579752064845182E-002
  0.695023651807421      -3.682132624975259E-002  0.105675885325778     
  0.681646664067578      -3.812190665922779E-002  0.115470966472200     
  0.667958216944580      -3.942518053748910E-002  0.125221200769649     
  0.653974122495646      -4.072720085239104E-002  0.134911406365459     
  0.639712022977305      -4.202380569099960E-002  0.144583673909596     
  0.625191338641408      -4.331063511566653E-002  0.154227650758486     
  0.610433193276417      -4.458315186273348E-002  0.163877774543049     
  0.595460317506291      -4.583666607350885E-002  0.173530525691267     
  0.580296930324363      -4.706636415496987E-002  0.183210560697950     
  0.564968599819307      -4.826734175769536E-002  0.192919932208259     
  0.549502084529173      -4.943464073421587E-002  0.202673076873921     
  0.533925157321317      -5.056328980674282E-002  0.212476853437460     
  0.518266414124252      -5.164834853448222E-002  0.222335923987478     
  0.502555070216149      -5.268495403348877E-002  0.232262225572062     
  0.486820747089359      -5.366836977267452E-002  0.242251709725143     
  0.471093253148793      -5.459403565457564E-002  0.252317891576358     
  0.455402361654779      -5.545761849489572E-002  0.262326254864124     
  0.439777589382362      -5.625506194609634E-002  0.272299279118599     
  0.424247979436614      -5.698263487182718E-002  0.282196320416424     
  0.408841891539178      -5.763697717396151E-002  0.292067685551935     
  0.393586802890281      -5.821514210420231E-002  0.301845456599779     
  0.378509122421679      -5.871463415791518E-002  0.311584257830654     
  0.363634020900931      -5.913344174779431E-002  0.321197097386874     
  0.348985278939855      -5.947006398655323E-002  0.330746172656432     
  0.334585154514924      -5.972353106721210E-002  0.340131075547694     
  0.320454271140270      -5.989341791193621E-002  0.349427106631147     
  0.306611527360006      -5.997985096032882E-002  0.358524604489659     
  0.293074027759710      -5.998350817985559E-002  0.367523059847317     
  0.279857050150588      -5.990444954595020E-002  0.376310683699076     
  0.266974071532946      -5.974115934648087E-002  0.384455290701623     
  0.254436687765421      -5.949619235958110E-002  0.392258303952495     
  0.242254590418352      -5.917462021453175E-002  0.399737082300638     
  0.230435657346581      -5.877950174230472E-002  0.406825365095196     
  0.218985981513271      -5.831432783584997E-002  0.413627286137669     
  0.207909927033704      -5.778299083409870E-002  0.420032572643643     
  0.197210195764651      -5.718975405655877E-002  0.426152122614185     
  0.186888097128887      -5.653653269590260E-002  0.432025213402884     
  0.176944048773137      -5.581915391915332E-002  0.436204904885117     
  0.167376450190071      -5.504393444449614E-002  0.439972664538483     
  0.158181839537788      -5.422373560443759E-002  0.443049044895142     
  0.149356008845020      -5.336402775436868E-002  0.445961150851402     
  0.140894531792397      -5.246270433945201E-002  0.447838809779240     
  0.132792572598136      -5.151527099780620E-002  0.447923730693252     
  0.125042648529722      -5.053348438269398E-002  0.447247819077584     
  0.117635874536503      -4.953175995552651E-002  0.446737862254037     
  0.110566120219504      -4.849957833915088E-002  0.443753254606900     
  0.103825710313917      -4.743559307191336E-002  0.439391385116644     
  9.740302246356181E-002 -4.636046448358892E-002  0.435092497678323     
  9.128993515794470E-002 -4.526959883528320E-002  0.428693744677168     
  8.547868265721659E-002 -4.415662563251337E-002  0.420173141615983     
  7.995619932694853E-002 -4.304174403757182E-002  0.412609713381242     
  7.471505784356669E-002 -4.191565216614326E-002  0.401289065821093     
  6.974632251942237E-002 -4.077646030434248E-002  0.389443505696675     
  6.503603862677809E-002 -3.964424687098558E-002  0.377657818835153     
  6.057856107812076E-002 -3.850377417336122E-002  0.361398749423045     
  5.636080767509588E-002 -3.736914404653564E-002  0.348467050520868     
  5.237588258684633E-002 -3.623316124696991E-002  0.329187018160153     
  4.861410553994727E-002 -3.509722737101816E-002  0.313401096471852     
  4.506419764092662E-002 -3.397080608324016E-002  0.292702663241883     
  4.171874950925059E-002 -3.284883862407187E-002  0.274314437210640     
  3.856790851486247E-002 -3.173650925395256E-002  0.252227914915572     
  3.560346516272939E-002 -3.063303656780824E-002  0.232143571406681     
  3.281757752056591E-002 -2.953898224397961E-002  0.208425844559301     
  3.020058692334526E-002 -2.845835883391527E-002  0.187720515995431     
  2.774746245235360E-002 -2.738664697764612E-002  0.162212117759394     
  2.544607444234526E-002 -2.633330383948955E-002  0.141773342868616     
  2.329535049163844E-002 -2.528815401523145E-002  0.115123464617071     
  2.128592513596894E-002 -2.425446633946177E-002  9.383365152015966E-002
  1.940874743989363E-002 -2.324054043858789E-002  6.835547005810483E-002
  1.766335891244597E-002 -2.223383174114062E-002  4.509305532220464E-002
  1.603176836942877E-002 -2.125649773259790E-002  2.249159579166027E-002
  1.452243875938164E-002 -2.028562863836164E-002 -2.290513619727985E-003
  1.311916283017667E-002 -1.933635596839932E-002 -2.337702100356420E-002
  1.181952386836871E-002 -1.840781632522546E-002 -4.662570317669124E-002
  1.062806782822701E-002 -1.748513233492494E-002 -6.897236734639067E-002
  9.514649837480404E-003 -1.660112649992002E-002 -8.836595293775851E-002
  8.499029381182965E-003 -1.572832721528210E-002 -0.110450925361089     
  7.579991635020211E-003 -1.486138387836461E-002 -0.130223345846004     
  6.717937280030006E-003 -1.403936822746698E-002 -0.148031849915070     
  5.940354364939227E-003 -1.323182896156102E-002 -0.167362883353993     
  5.249809497187674E-003 -1.243113450084882E-002 -0.184748020253556     
  4.606505349093348E-003 -1.166981336097379E-002 -0.200889045523750     
  4.019084760469083E-003 -1.093876117669639E-002 -0.216274447112276     
  3.510512539861677E-003 -1.021691714003041E-002 -0.231666569055486     
  3.057634082064498E-003 -9.517637515266138E-003 -0.245402297804274     
  2.631117457770227E-003 -8.859062615407042E-003 -0.257935410571560     
  2.251275171854528E-003 -8.226930114444621E-003 -0.269932910192075     
  1.938279788374575E-003 -7.607223007985909E-003 -0.281509655518463     
  1.666444256633093E-003 -7.011216243201864E-003 -0.291732044204831     
  1.410520706634499E-003 -6.450096929293438E-003 -0.301280476074077     
  1.169595613052854E-003 -5.921862137244775E-003 -0.309467421124952     
  9.714139556434853E-004 -5.414313495089066E-003 -0.317634761616392     
  8.250585825617662E-004 -4.922097709573018E-003 -0.324882599688093     
  6.988865456272197E-004 -4.454648652672559E-003 -0.331393672636822     
  5.801392403548267E-004 -4.014707147346485E-003 -0.337234272113883     
  4.683858810181629E-004 -3.600677195095761E-003 -0.342346441243979     
  3.632199696889105E-004 -3.211052780183306E-003 -0.346850915874157     
  2.743133056950509E-004 -2.842623994983526E-003 -0.350759536358073     
  2.210749553935853E-004 -2.490532946816359E-003 -0.354464694883555     
  1.913459007185647E-004 -2.155618528247178E-003 -0.357486951058362     
  1.633742378795988E-004 -1.840502111041751E-003 -0.360171412172583     
  1.370570834159368E-004 -1.544024655503801E-003 -0.362349404034994     
  1.122974612960403E-004 -1.265093672432821E-003 -0.364166829121888     
  8.900397712352515E-005 -1.002679552866129E-003 -0.365575514822229     
  6.709050874131872E-005 -7.558120825648265E-004 -0.366670588576098     
  4.647591259843153E-005 -5.235771340711596E-004 -0.367412855060074     
  2.708374524285073E-005 -3.051135291669230E-004 -0.367906323381617     
  8.841999307285242E-006 -9.961006461039270E-005 -0.368000511071002     
  8.841999307285242E-006  9.961006461028181E-005 -0.368000604874263     
  2.708374524285073E-005  3.051135291667098E-004 -0.367906610350073     
  4.647591259843153E-005  5.235771340709393E-004 -0.367413334307131     
  6.709050874131872E-005  7.558120825646010E-004 -0.366671260862241     
  8.900397712352515E-005  1.002679552865986E-003 -0.365576379520928     
  1.122974612960403E-004  1.265093672432764E-003 -0.364167886827917     
  1.370570834159368E-004  1.544024655503732E-003 -0.362350654243342     
  1.633742378795988E-004  1.840502111041621E-003 -0.360172855514674     
  1.913459007184537E-004  2.155618528247007E-003 -0.357488586703789     
  2.210749553934743E-004  2.490532946816264E-003 -0.354466524524081     
  2.743133056950509E-004  2.842623994983483E-003 -0.350761557979515     
  3.632199696889105E-004  3.211052780183224E-003 -0.346853133207573     
  4.683858810181629E-004  3.600677195095709E-003 -0.342348854036387     
  5.801392403548267E-004  4.014707147346560E-003 -0.337236880405975     
  6.988865456272197E-004  4.454648652672678E-003 -0.331396476158069     
  8.250585825617662E-004  4.922097709573131E-003 -0.324885598875748     
  9.714139556435963E-004  5.414313495089258E-003 -0.317637957031732     
  1.169595613053076E-003  5.921862137244993E-003 -0.309470813932213     
  1.410520706634721E-003  6.450096929293682E-003 -0.301284072555814     
  1.666444256633204E-003  7.011216243202129E-003 -0.291735841519526     
  1.938279788374575E-003  7.607223007986173E-003 -0.281513655569011     
  2.251275171854639E-003  8.226930114444923E-003 -0.269937112993655     
  2.631117457770449E-003  8.859062615407375E-003 -0.257939822614237     
  3.057634082064720E-003  9.517637515266467E-003 -0.245406923327335     
  3.510512539861899E-003  1.021691714003073E-002 -0.231671407514639     
  4.019084760469305E-003  1.093876117669672E-002 -0.216279500097527     
  4.606505349093681E-003  1.166981336097417E-002 -0.200894322461167     
  5.249809497188118E-003  1.243113450084921E-002 -0.184753525148079     
  5.940354364939671E-003  1.323182896156143E-002 -0.167368616967321     
  6.717937280030450E-003  1.403936822746736E-002 -0.148037816767397     
  7.579991635020655E-003  1.486138387836498E-002 -0.130229560048240     
  8.499029381183409E-003  1.572832721528245E-002 -0.110457384421637     
  9.514649837480849E-003  1.660112649992034E-002 -8.837266192276383E-002
  1.062806782822745E-002  1.748513233492523E-002 -6.897934295937969E-002
  1.181952386836915E-002  1.840781632522574E-002 -4.663294163313347E-002
  1.311916283017700E-002  1.933635596839959E-002 -2.338453174150557E-002
  1.452243875938186E-002  2.028562863836187E-002 -2.298308401095905E-003
  1.603176836942910E-002  2.125649773259813E-002  2.248351873889631E-002
  1.766335891244641E-002  2.223383174114088E-002  4.508468119121622E-002
  1.940874743989407E-002  2.324054043858812E-002  6.834679639970487E-002
  2.128592513596939E-002  2.425446633946199E-002  9.382467384762716E-002
  2.329535049163889E-002  2.528815401523170E-002  0.115114169689765     
  2.544607444234570E-002  2.633330383948980E-002  0.141763735180211     
  2.774746245235415E-002  2.738664697764639E-002  0.162202179652988     
  3.020058692334593E-002  2.845835883391554E-002  0.187710253897388     
  3.281757752056658E-002  2.953898224397986E-002  0.208415245319789     
  3.560346516273005E-002  3.063303656780848E-002  0.232132638334196     
  3.856790851486314E-002  3.173650925395279E-002  0.252216639711778     
  4.171874950925125E-002  3.284883862407208E-002  0.274302822257009     
  4.506419764092739E-002  3.397080608324039E-002  0.292690703041121     
  4.861410553994816E-002  3.509722737101842E-002  0.313388794976939     
  5.237588258684733E-002  3.623316124697021E-002  0.329174370825817     
  5.636080767509699E-002  3.736914404653596E-002  0.348454064616750     
  6.057856107812187E-002  3.850377417336152E-002  0.361385420000044     
  6.503603862677920E-002  3.964424687098586E-002  0.377644155773502     
  6.974632251942359E-002  4.077646030434276E-002  0.389429507833423     
  7.471505784356791E-002  4.191565216614354E-002  0.401274741149446     
  7.995619932694975E-002  4.304174403757209E-002  0.412595067078965     
  8.547868265721803E-002  4.415662563251363E-002  0.420158177738230     
  9.128993515794637E-002  4.526959883528348E-002  0.428678472935598     
  9.740302246356347E-002  4.636046448358921E-002  0.435076924095197     
  0.103825710313919       4.743559307191365E-002  0.439375517150675     
  0.110566120219506       4.849957833915118E-002  0.443737102234028     
  0.117635874536505       4.953175995552680E-002  0.446721433182461     
  0.125042648529724       5.053348438269425E-002  0.447231121431386     
  0.132792572598138       5.151527099780649E-002  0.447906774519129     
  0.140894531792399       5.246270433945228E-002  0.447821604053632     
  0.149356008845023       5.336402775436895E-002  0.445943703724051     
  0.158181839537791       5.422373560443786E-002  0.443031365384449     
  0.167376450190074       5.504393444449639E-002  0.439954761520518     
  0.176944048773140       5.581915391915356E-002  0.436186786924316     
  0.186888097128891       5.653653269590281E-002  0.432006888521930     
  0.197210195764654       5.718975405655896E-002  0.426133598581101     
  0.207909927033707       5.778299083409888E-002  0.420013857273773     
  0.218985981513274       5.831432783585012E-002  0.413608387011085     
  0.230435657346584       5.877950174230485E-002  0.406806289355429     
  0.242254590418356       5.917462021453186E-002  0.399717836980935     
  0.254436687765425       5.949619235958120E-002  0.392238895730126     
  0.266974071532951       5.974115934648094E-002  0.384435726195755     
  0.279857050150593       5.990444954595026E-002  0.376290969273996     
  0.293074027759714       5.998350817985563E-002  0.367503201958370     
  0.306611527360011       5.997985096032882E-002  0.358504609272550     
  0.320454271140275       5.989341791193618E-002  0.349406980147516     
  0.334585154514929       5.972353106721202E-002  0.340110823693820     
  0.348985278939860       5.947006398655311E-002  0.330725801259418     
  0.363634020900936       5.913344174779415E-002  0.321176612114330     
  0.378509122421684       5.871463415791503E-002  0.311563664225983     
  0.393586802890286       5.821514210420214E-002  0.301824760015531     
  0.408841891539183       5.763697717396130E-002  0.292046891046655     
  0.424247979436620       5.698263487182694E-002  0.282175432891329     
  0.439777589382368       5.625506194609606E-002  0.272278302475364     
  0.455402361654785       5.545761849489542E-002  0.262305194227331     
  0.471093253148799       5.459403565457532E-002  0.252296746804651     
  0.486820747089365       5.366836977267417E-002  0.242230499377496     
  0.502555070216155       5.268495403348840E-002  0.232240980175280     
  0.518266414124258       5.164834853448182E-002  0.222314643059061     
  0.533925157321323       5.056328980674243E-002  0.212455545190589     
  0.549502084529179       4.943464073421546E-002  0.202651747917161     
  0.564968599819313       4.826734175769493E-002  0.192898590138431     
  0.580296930324369       4.706636415496942E-002  0.183189213380567     
  0.595460317506297       4.583666607350841E-002  0.173509181303426     
  0.610433193276423       4.458315186273303E-002  0.163856441479646     
  0.625191338641413       4.331063511566605E-002  0.154206337583865     
  0.639712022977310       4.202380569099910E-002  0.144562389299328     
  0.653974122495652       4.072720085239055E-002  0.134890159068698     
  0.667958216944586       3.942518053748860E-002  0.125199999559974     
  0.681646664067583       3.812190665922729E-002  0.115449820113556     
  0.695023651807426       3.682132624975208E-002  0.105654802526716     
  0.708075228679924       3.552715818510210E-002  9.577651003110543E-002
  0.720789313138662       3.424288317751254E-002  8.579683745241073E-002
  0.733155517081824       3.297015436139052E-002  7.573233800040269E-002
  0.745165431436645       3.171185038487738E-002  6.534242298380244E-002
  0.756812605590841       3.047225173673885E-002  5.490254496329117E-002
  0.768092166110165       2.925391921276525E-002  4.435048272127062E-002
  0.779000884847344       2.805910063978216E-002  3.366454021876453E-002
  0.789537101723151       2.688979892317177E-002  2.286947232166492E-002
  0.799700455259615       2.574622884337426E-002  1.194623159949182E-002
  0.809492049394795       2.462921101698028E-002  7.521305764552899E-004
  0.818914520771601       2.354162889368867E-002 -1.058169002636555E-002
  0.827971583017265       2.248531546583579E-002 -2.191898439209439E-002
  0.836667790252267       2.146004270692930E-002 -3.336339257232268E-002
  0.845008605117867       2.046510145424194E-002 -4.488602171445910E-002
  0.853000640736538       1.950219720676798E-002 -5.659397473342676E-002
  0.860651278709357       1.857306609199058E-002 -6.816142981334217E-002
  0.867968048991340       1.767527645861659E-002 -7.968173447255333E-002
  0.874959361825580       1.680904248481432E-002 -9.135713281375946E-002
  0.881634354807105       1.597666973363673E-002 -0.102851318370476     
  0.888001926144580       1.517548130265273E-002 -0.114044472586055     
  0.894071612625422       1.440553140223034E-002 -0.125449111803418     
  0.899853259637224       1.366754916491456E-002 -0.136296989305890     
  0.905356539043864       1.295968439299011E-002 -0.147121769846464     
  0.910591518904828       1.228247798053446E-002 -0.157606613261443     
  0.915568017057548       1.163428261837529E-002 -0.167704520076488     
  0.920296001506857       1.101473943138043E-002 -0.177630647812221     
  0.924785335229137       1.042319342430861E-002 -0.186987336748249     
  0.929045729434507       9.858610535367525E-003 -0.196118327090656     
  0.933086820659711       9.320470120943211E-003 -0.204679625331790     
  0.936918012072208       8.807758307222070E-003 -0.212895771193175     
  0.940548532638631       8.319645947101609E-003 -0.220561836513816     
  0.943987401243019       7.855348486410615E-003 -0.227820338581757     
  0.947243363824028       7.413828030933243E-003 -0.234519051826500     
  0.950324929075314       6.994133435052048E-003 -0.240780412271317     
  0.953240403573190       6.595771835954800E-003 -0.246527984530745     
  0.955997710370830       6.217413840325344E-003 -0.251726005107025     
  0.958604645181736       5.858830942331399E-003 -0.256561062169890     
  0.961068558213989       5.518593757245211E-003 -0.260694731510213     
  0.963396661946771       5.196322023475506E-003 -0.264635431224438     
  0.965595797706437       4.891000631062511E-003 -0.267794024294050     
  0.967672524401832       4.601598941976731E-003 -0.270822294412941     
  0.969633266134775       4.328118765340781E-003 -0.273152805570101     
  0.971483973629758       4.069132613147574E-003 -0.275279369290710     
  0.973230431824571       3.823950261951115E-003 -0.276834055254319     
  0.974878255807106       3.592549695914026E-003 -0.278236605555987     
  0.976432621979565       3.373612231558908E-003 -0.279020830597529     
  0.977898557719228       3.166534808728841E-003 -0.279783992339289     
  0.979280925188389       2.971262202179325E-003 -0.279968746308606     
  0.980584210328237       2.786736062434180E-003 -0.280123158376953     
  0.981812729093726       2.612298116371144E-003 -0.279796442976537     
  0.982970652698722       2.447811032849902E-003 -0.279492222841748     
  0.984061878782685       2.292691610910997E-003 -0.278723043285905     
  0.985090076270553       2.146169626638764E-003 -0.278031190292926     
  0.986058776549837       2.007870996242638E-003 -0.276936533017861     
  0.986971348521762       1.877585647353850E-003 -0.275958705620307     
  0.987830936170728       1.754773418841784E-003 -0.274607904358329     
  0.988640507745155       1.638854165885759E-003 -0.273418857767684     
  0.989402909161397       1.529527323952571E-003 -0.271909619256663     
  0.990120843598400       1.426576958120972E-003 -0.270588881758920     
  0.990796845563837       1.329639625047739E-003 -0.268985492241865     
  0.991433288916791       1.238211753831686E-003 -0.267593712240084     
  0.992032440159447       1.151973027089460E-003 -0.265965673621881     
  0.992596464885566       1.070785363111486E-003 -0.264571130626654     
  0.993127386684681       9.943626485936540E-004 -0.262965481839103     
  0.993627115299514       9.224242087523592E-004 -0.261612245404592     
  0.994097440802925       8.546137313531353E-004 -0.260076353890794     
  0.994540067843590       7.906977726001834E-004 -0.258802618529485     
  0.994956618372159       7.305472983713144E-004 -0.257378290104345     
  0.995348608774152       6.739433404936558E-004 -0.256208522051311     
  0.995717469545086       6.206793334299079E-004 -0.254919371349813     
  0.996064545310490       5.705287757016100E-004 -0.253875394143703     
  0.996391104685072       5.232824611466228E-004 -0.252737086958821     
  0.996698352306458       4.788022252602527E-004 -0.251832094651466     
  0.996987423131748       4.369534440110160E-004 -0.250853080109678     
  0.997259382938520       3.975818247865938E-004 -0.250088820337011     
  0.997515236117858       3.605419618972581E-004 -0.249269431192882     
  0.997755927276181       3.256843802970459E-004 -0.248642735515589     
  0.997982345559864       2.928625964649020E-004 -0.247975962306490     
  0.998195333020307       2.619692394465794E-004 -0.247477823238077     
  0.998395683636583       2.329088285444983E-004 -0.246951660217994     
  0.998584142577042       2.055732787484207E-004 -0.246567159323936     
  0.998761411599955       1.798608015831094E-004 -0.246164354011015     
  0.998928151520886       1.556755472221381E-004 -0.245876116116018     
  0.999084982597171       1.329138319584505E-004 -0.245576215655127     
  0.999232490696409       1.114911082995802E-004 -0.245364534676521     
  0.999371229373062       9.134159109742271E-005 -0.245146276049123     
  0.999501717822152       7.239028412906411E-005 -0.244991009292093     
  0.999624444703074       5.456621763239993E-005 -0.244833309123813     
  0.999739869675705       3.780065359310569E-005 -0.244715420102967     
  0.999848425210164       2.202786431357840E-005 -0.244603154724084     
  0.999950519027277       7.190906577634323E-006 -0.244517745425088     
