 variables=iter,pressure,tk,tw
 zone t="error", f=point
       1,  0.000000,  0.000000,  0.000000
      11, -0.111571,  0.010308, -0.000730
      21, -0.203249,  0.077190,  0.010592
      31, -0.238073,  0.241861,  0.022726
      41, -0.246119,  0.471746,  0.027436
      51, -0.249946,  0.601707,  0.024178
      61, -0.263088,  0.698579,  0.014979
      71, -0.279815,  0.776099,  0.001379
      81, -0.287075,  0.839239, -0.015271
      91, -0.278105,  0.891382, -0.033472
     101, -0.257757,  0.935505, -0.051785
     111, -0.240428,  0.974340, -0.069464
     121, -0.233017,  1.010086, -0.086477
     131, -0.228957,  1.044212, -0.102893
     141, -0.226116,  1.077351, -0.118270
     151, -0.228983,  1.109473, -0.131938
     161, -0.238684,  1.140194, -0.143549
     171, -0.252702,  1.169091, -0.153565
     181, -0.267089,  1.195892, -0.163214
     191, -0.279400,  1.220406, -0.174031
     201, -0.290547,  1.242405, -0.187025
     211, -0.302553,  1.261564, -0.201609
     221, -0.315462,  1.277554, -0.216010
     231, -0.327013,  1.290239, -0.228539
     241, -0.334883,  1.299937, -0.238460
     251, -0.338839,  1.307548, -0.245868
     261, -0.340623,  1.314416, -0.251146
     271, -0.342145,  1.321913, -0.254619
     281, -0.344408,  1.330896, -0.256581
     291, -0.347723,  1.341414, -0.257293
     301, -0.352232,  1.352848, -0.257003
     311, -0.357869,  1.364397, -0.256067
     321, -0.364173,  1.375482, -0.254984
     331, -0.370461,  1.385933, -0.254177
     341, -0.376174,  1.395982, -0.253848
     351, -0.381045,  1.406092, -0.254014
     361, -0.385163,  1.416657, -0.254570
     371, -0.388934,  1.427798, -0.255313
     381, -0.392838,  1.439380, -0.256046
     391, -0.397145,  1.451166, -0.256591
     401, -0.401845,  1.462999, -0.256821
     411, -0.406814,  1.474895, -0.256640
     421, -0.411957,  1.486991, -0.255977
     431, -0.417232,  1.499317, -0.254884
     441, -0.422644,  1.511933, -0.253389
     451, -0.428247,  1.524865, -0.251536
     461, -0.434105,  1.537947, -0.249594
     471, -0.440135,  1.550988, -0.247872
     481, -0.445823,  1.563827, -0.246631
     491, -0.450103,  1.576367, -0.246016
     501, -0.452109,  1.588589, -0.246052
     511, -0.452785,  1.600541, -0.246660
     521, -0.455104,  1.612312, -0.247691
     531, -0.461118,  1.624002, -0.248949
     541, -0.469487,  1.635685, -0.250238
     551, -0.477363,  1.647387, -0.251414
     561, -0.483555,  1.659084, -0.252415
     571, -0.488761,  1.670710, -0.253268
     581, -0.493849,  1.682180, -0.254070
     591, -0.498883,  1.693420, -0.254953
     601, -0.503546,  1.704402, -0.256058
     611, -0.507701,  1.715145, -0.257501
     621, -0.511447,  1.725699, -0.259369
     631, -0.515079,  1.736117, -0.261697
     641, -0.518995,  1.746456, -0.264446
     651, -0.523469,  1.756783, -0.267489
     661, -0.528546,  1.767184, -0.270626
     671, -0.534175,  1.777760, -0.273587
     681, -0.540320,  1.788601, -0.276076
     691, -0.546877,  1.799717, -0.277879
     701, -0.553553,  1.810946, -0.279058
     711, -0.559988,  1.821885, -0.280152
     721, -0.566114,  1.831959, -0.282178
     731, -0.572295,  1.840662, -0.286264
     741, -0.578866,  1.847893, -0.293019
     751, -0.585640,  1.854137, -0.302068
     761, -0.592120,  1.860294, -0.312212
     771, -0.598061,  1.867262, -0.322125
     781, -0.603614,  1.875584, -0.331019
     791, -0.609064,  1.885374, -0.338780
     801, -0.614597,  1.896465, -0.345666
     811, -0.620234,  1.908582, -0.351994
     821, -0.625875,  1.921430, -0.358045
     831, -0.631423,  1.934748, -0.364116
     841, -0.636870,  1.948337, -0.370509
     851, -0.642284,  1.962096, -0.377447
     861, -0.647718,  1.976021, -0.384993
     871, -0.653135,  1.990178, -0.393058
     881, -0.658439,  2.004650, -0.401472
     891, -0.663561,  2.019486, -0.410078
     901, -0.668528,  2.034679, -0.418787
     911, -0.673465,  2.050162, -0.427602
     921, -0.678535,  2.065831, -0.436591
     931, -0.683873,  2.081573, -0.445852
     941, -0.689538,  2.097290, -0.455466
     951, -0.695492,  2.112912, -0.465465
     961, -0.701597,  2.128401, -0.475822
     971, -0.707667,  2.143739, -0.486462
     981, -0.713550,  2.158924, -0.497292
     991, -0.719211,  2.173958, -0.508232
    1001, -0.724692,  2.188849, -0.519240
    1011, -0.729990,  2.203609, -0.530321
    1021, -0.735039,  2.218253, -0.541514
    1031, -0.739830,  2.232792, -0.552880
    1041, -0.744419,  2.247232, -0.564478
    1051, -0.748843,  2.261569, -0.576354
    1061, -0.753150,  2.275788, -0.588526
    1071, -0.757413,  2.289876, -0.600990
    1081, -0.761770,  2.303824, -0.613725
    1091, -0.766451,  2.317642, -0.626712
    1101, -0.771671,  2.331366, -0.639931
    1111, -0.777406,  2.345057, -0.653374
    1121, -0.783267,  2.358798, -0.667029
    1131, -0.788653,  2.372678, -0.680879
    1141, -0.793104,  2.386778, -0.694895
    1151, -0.796524,  2.401156, -0.709031
    1161, -0.799107,  2.415845, -0.723231
    1171, -0.801058,  2.430851, -0.737436
    1181, -0.802518,  2.446169, -0.751588
    1191, -0.803781,  2.461787, -0.765641
    1201, -0.805467,  2.477699, -0.779561
    1211, -0.808335,  2.493903, -0.793329
    1221, -0.812812,  2.510398, -0.806934
    1231, -0.818667,  2.527182, -0.820374
    1241, -0.825114,  2.544245, -0.833649
    1251, -0.831286,  2.561566, -0.846766
    1261, -0.836679,  2.579114, -0.859735
    1271, -0.841244,  2.596850, -0.872577
    1281, -0.845152,  2.614733, -0.885323
    1291, -0.848533,  2.632719, -0.898021
    1301, -0.851438,  2.650766, -0.910730
    1311, -0.853996,  2.668835, -0.923519
    1321, -0.856526,  2.686888, -0.936446
    1331, -0.859447,  2.704889, -0.949538
    1341, -0.863033,  2.722801, -0.962775
    1351, -0.867224,  2.740592, -0.976098
    1361, -0.871623,  2.758232, -0.989428
    1371, -0.875701,  2.775699, -1.002688
    1381, -0.879127,  2.792978, -1.015804
    1391, -0.881878,  2.810067, -1.028710
    1401, -0.884248,  2.826970, -1.041348
    1411, -0.886551,  2.843700, -1.053680
    1421, -0.888919,  2.860273, -1.065704
    1431, -0.891246,  2.876707, -1.077451
    1441, -0.893325,  2.893014, -1.088972
    1451, -0.894993,  2.909205, -1.100324
    1461, -0.896136,  2.925286, -1.111553
    1471, -0.896672,  2.941258, -1.122690
    1481, -0.896682,  2.957124, -1.133752
    1491, -0.896691,  2.972883, -1.144739
    1501, -0.897865,  2.988536, -1.155635
    1511, -0.901860,  3.004085, -1.166414
    1521, -0.910284,  3.019532, -1.177049
    1531, -0.923974,  3.034879, -1.187518
    1541, -0.942250,  3.050130, -1.197815
    1551, -0.962336,  3.065286, -1.207939
    1561, -0.979368,  3.080347, -1.217882
    1571, -0.987789,  3.095313, -1.227618
    1581, -0.984247,  3.110184, -1.237115
    1591, -0.969857,  3.124959, -1.246347
    1601, -0.949345,  3.139637, -1.255316
    1611, -0.928248,  3.154219, -1.264054
    1621, -0.910945,  3.168708, -1.272609
    1631, -0.900248,  3.183106, -1.281015
    1641, -0.897703,  3.197417, -1.289275
    1651, -0.903880,  3.211645, -1.297352
    1661, -0.918419,  3.225796, -1.305199
    1671, -0.939815,  3.239872, -1.312775
    1681, -0.965046,  3.253881, -1.320073
    1691, -0.989450,  3.267825, -1.327121
    1701, -1.007548,  3.281712, -1.333964
    1711, -1.015157,  3.295545, -1.340644
    1721, -1.011477,  3.309333, -1.347183
    1731, -0.999069,  3.323083, -1.353571
    1741, -0.981865,  3.336806, -1.359779
    1751, -0.963341,  3.350517, -1.365760
    1761, -0.945881,  3.364229, -1.371474
    1771, -0.930910,  3.377960, -1.376910
    1781, -0.919187,  3.391721, -1.382115
    1791, -0.911009,  3.405518, -1.387207
    1801, -0.906354,  3.419348, -1.392356
    1811, -0.905017,  3.433195, -1.397731
    1821, -0.906686,  3.447036, -1.403445
    1831, -0.910898,  3.460839, -1.409513
    1841, -0.916860,  3.474573, -1.415843
    1851, -0.923254,  3.488211, -1.422270
    1861, -0.928315,  3.501730, -1.428621
    1871, -0.930322,  3.515116, -1.434763
    1881, -0.928298,  3.528357, -1.440638
    1891, -0.922409,  3.541447, -1.446263
    1901, -0.913702,  3.554381, -1.451702
    1911, -0.903500,  3.567152, -1.457036
    1921, -0.892961,  3.579755, -1.462345
    1931, -0.882990,  3.592180, -1.467695
    1941, -0.874307,  3.604420, -1.473144
    1951, -0.867461,  3.616468, -1.478732
    1961, -0.862745,  3.628318, -1.484467
    1971, -0.860162,  3.639968, -1.490314
    1981, -0.859463,  3.651418, -1.496183
    1991, -0.860228,  3.662675, -1.501939
    2001, -0.861824,  3.673749, -1.507424
    2011, -0.863245,  3.684650, -1.512483
    2021, -0.863059,  3.695394, -1.516998
    2031, -0.859779,  3.705996, -1.520918
    2041, -0.852645,  3.716471, -1.524275
    2051, -0.842269,  3.726831, -1.527177
    2061, -0.830490,  3.737087, -1.529778
    2071, -0.819573,  3.747249, -1.532207
    2081, -0.811388,  3.757320, -1.534483
    2091, -0.807008,  3.767302, -1.536426
    2101, -0.806647,  3.777193, -1.537520
    2111, -0.809668,  3.786989, -1.536878
    2121, -0.814564,  3.796682, -1.533311
    2131, -0.819070,  3.806265, -1.525587
    2141, -0.820683,  3.815725, -1.513010
    2151, -0.817644,  3.825045, -1.495905
    2161, -0.809871,  3.834207, -1.475873
    2171, -0.799051,  3.843189, -1.455242
    2181, -0.787798,  3.851977, -1.436146
    2191, -0.778546,  3.860573, -1.419697
    2201, -0.772834,  3.869007, -1.405605
    2211, -0.771096,  3.877328, -1.392561
    2221, -0.772810,  3.885580, -1.379246
    2231, -0.776837,  3.893772, -1.365445
    2241, -0.781852,  3.901863, -1.352391
    2251, -0.786727,  3.909766, -1.341984
    2261, -0.790721,  3.917383, -1.335399
    2271, -0.793434,  3.924646, -1.331826
    2281, -0.794606,  3.931538, -1.327848
    2291, -0.793920,  3.938099, -1.318090
    2301, -0.790907,  3.944414, -1.297709
    2311, -0.785040,  3.950586, -1.265435
    2321, -0.776005,  3.956729, -1.224487
    2331, -0.764099,  3.962945, -1.180199
    2341, -0.750491,  3.969334, -1.137056
    2351, -0.737126,  3.975955, -1.098086
    2361, -0.726301,  3.982817, -1.065547
    2371, -0.720178,  3.989873, -1.041004
    2381, -0.720402,  3.997036, -1.025616
    2391, -0.727872,  4.004215, -1.020259
    2401, -0.742532,  4.011350, -1.025492
    2411, -0.763109,  4.018432, -1.041327
    2421, -0.786791,  4.025491, -1.066701
    2431, -0.809129,  4.032557, -1.098612
    2441, -0.824746,  4.039633, -1.130976
    2451, -0.829308,  4.046679, -1.154388
    2461, -0.821819,  4.053620, -1.159757
    2471, -0.805076,  4.060368, -1.144536
    2481, -0.783840,  4.066846, -1.115165
    2491, -0.762652,  4.072980, -1.080620
    2501, -0.744806,  4.078726, -1.048146
    2511, -0.732306,  4.084093, -1.023186
    2521, -0.726167,  4.089047, -1.008818
    2531, -0.726667,  4.093505, -1.006426
    2541, -0.733455,  4.097355, -1.016870
    2551, -0.745515,  4.100496, -1.040414
    2561, -0.761073,  4.102880, -1.076581
    2571, -0.777611,  4.104536, -1.123600
    2581, -0.792200,  4.105564, -1.177442
    2591, -0.802296,  4.106110, -1.230140
    2601, -0.806725,  4.106335, -1.269781
    2611, -0.806155,  4.106381, -1.286237
    2621, -0.802634,  4.106363, -1.279458
    2631, -0.798582,  4.106365, -1.258712
    2641, -0.795936,  4.106446, -1.234224
    2651, -0.795771,  4.106652, -1.212381
    2661, -0.798306,  4.107013, -1.195812
    2671, -0.803078,  4.107558, -1.184974
    2681, -0.809196,  4.108305, -1.179305
    2691, -0.815611,  4.109271, -1.177774
    2701, -0.821372,  4.110460, -1.179325
    2711, -0.825828,  4.111874, -1.183007
    2721, -0.828714,  4.113507, -1.188029
    2731, -0.830109,  4.115341, -1.193774
    2741, -0.830321,  4.117355, -1.199646
    2751, -0.829771,  4.119517, -1.205031
    2761, -0.828931,  4.121792, -1.209217
    2771, -0.828310,  4.124139, -1.211482
    2781, -0.828454,  4.126513, -1.211252
    2791, -0.829913,  4.128866, -1.208224
    2801, -0.833166,  4.131147, -1.202700
    2811, -0.838510,  4.133303, -1.195364
    2821, -0.845961,  4.135281, -1.187197
    2831, -0.855200,  4.137027, -1.179192
    2841, -0.865574,  4.138490, -1.172060
    2851, -0.876172,  4.139619, -1.166233
    2861, -0.885984,  4.140369, -1.161839
    2871, -0.894120,  4.140697, -1.158760
    2881, -0.900009,  4.140569, -1.156708
    2891, -0.903534,  4.139958, -1.155315
    2901, -0.905026,  4.138850, -1.154208
    2911, -0.905136,  4.137244, -1.153044
    2921, -0.904630,  4.135154, -1.151574
    2931, -0.904210,  4.132607, -1.149675
    2941, -0.904401,  4.129643, -1.147357
    2951, -0.905528,  4.126310, -1.144739
    2961, -0.907761,  4.122662, -1.142044
    2971, -0.911188,  4.118752, -1.139548
    2981, -0.915855,  4.114632, -1.137515
    2991, -0.921771,  4.110341, -1.136160
    3001, -0.928870,  4.105909, -1.135582
    3011, -0.936970,  4.101347, -1.135731
    3021, -0.945751,  4.096650, -1.136479
    3031, -0.954781,  4.091794, -1.137655
    3041, -0.963576,  4.086741, -1.139101
    3051, -0.971652,  4.081440, -1.140797
    3061, -0.978575,  4.075840, -1.142821
    3071, -0.983986,  4.069896, -1.145317
    3081, -0.987642,  4.063578, -1.148419
    3091, -0.989490,  4.056883, -1.152191
    3101, -0.989738,  4.049829, -1.156569
    3111, -0.988878,  4.042462, -1.161393
    3121, -0.987608,  4.034850, -1.166453
    3131, -0.986685,  4.027075, -1.171541
    3141, -0.986776,  4.019224, -1.176496
    3151, -0.988354,  4.011381, -1.181231
    3161, -0.991665,  4.003624, -1.185744
    3171, -0.996732,  3.996014, -1.190102
    3181, -1.003373,  3.988596, -1.194427
    3191, -1.011225,  3.981398, -1.198872
    3201, -1.019865,  3.974435, -1.203595
    3211, -1.028649,  3.967710, -1.208744
    3221, -1.037009,  3.961218, -1.214430
    3231, -1.044424,  3.954947, -1.220708
    3241, -1.050490,  3.948878, -1.227566
    3251, -1.054976,  3.942983, -1.234941
    3261, -1.057860,  3.937224, -1.242733
    3271, -1.059337,  3.931549, -1.250836
    3281, -1.059783,  3.925893, -1.259154
    3291, -1.059688,  3.920182, -1.267614
    3301, -1.059578,  3.914337, -1.276155
    3311, -1.059951,  3.908268, -1.284718
    3321, -1.061223,  3.901879, -1.293233
    3331, -1.063675,  3.895093, -1.301627
    3341, -1.067409,  3.887865, -1.309841
    3351, -1.072298,  3.880203, -1.317865
    3361, -1.077967,  3.872189, -1.325756
    3371, -1.083809,  3.863982, -1.333633
    3381, -1.089115,  3.855802, -1.341644
    3391, -1.093199,  3.847902, -1.349921
    3401, -1.095612,  3.840527, -1.358541
    3411, -1.096281,  3.833878, -1.367502
    3421, -1.095569,  3.828095, -1.376737
    3431, -1.094190,  3.823252, -1.386134
    3441, -1.093031,  3.819362, -1.395567
    3451, -1.092956,  3.816393, -1.404912
    3461, -1.094640,  3.814273, -1.414065
    3471, -1.098449,  3.812901, -1.422950
    3481, -1.104375,  3.812148, -1.431529
    3491, -1.111999,  3.811876, -1.439831
    3501, -1.120513,  3.811959, -1.447975
    3511, -1.128825,  3.812295, -1.456165
    3521, -1.135769,  3.812832, -1.464657
    3531, -1.140418,  3.813575, -1.473685
    3541, -1.142387,  3.814580, -1.483376
    3551, -1.141955,  3.815944, -1.493671
    3561, -1.139952,  3.817787, -1.504291
    3571, -1.137439,  3.820209, -1.514776
    3581, -1.135365,  3.823263, -1.524572
    3591, -1.134323,  3.826936, -1.533266
    3601, -1.134456,  3.831128, -1.540748
    3611, -1.135500,  3.835654, -1.547240
    3621, -1.136954,  3.840269, -1.553205
    3631, -1.138295,  3.844681, -1.559164
    3641, -1.139203,  3.848578, -1.565533
    3651, -1.139683,  3.851659, -1.572517
    3661, -1.140051,  3.853659, -1.580151
    3671, -1.140798,  3.854373, -1.588420
    3681, -1.142401,  3.853665, -1.597386
    3691, -1.145149,  3.851483, -1.607265
    3701, -1.149043,  3.847858, -1.618388
    3711, -1.153782,  3.842888, -1.631068
    3721, -1.158827,  3.836741, -1.645396
    3731, -1.163540,  3.829624, -1.661058
    3741, -1.167364,  3.821775, -1.677230
    3751, -1.169993,  3.813437, -1.692608
    3761, -1.171461,  3.804849, -1.705607
    3771, -1.172123,  3.796234, -1.714847
    3781, -1.172504,  3.787796, -1.719682
    3791, -1.173095,  3.779716, -1.720460
    3801, -1.174177,  3.772151, -1.718391
    3811, -1.175689,  3.765224, -1.715136
    3821, -1.177218,  3.759019, -1.712369
    3831, -1.178110,  3.753575, -1.711470
    3841, -1.177693,  3.748877, -1.713493
    3851, -1.175568,  3.744869, -1.719187
    3861, -1.171804,  3.741464, -1.728984
    3871, -1.166969,  3.738564, -1.743071
    3881, -1.161950,  3.736078, -1.761378
    3891, -1.157696,  3.733947, -1.783481
    3901, -1.154978,  3.732156, -1.808397
    3911, -1.154255,  3.730739, -1.834309
    3921, -1.155659,  3.729767, -1.858331
    3931, -1.159018,  3.729331, -1.876670
    3941, -1.163925,  3.729508, -1.885590
    3951, -1.169794,  3.730337, -1.883115
    3961, -1.175897,  3.731794, -1.870241
    3971, -1.181431,  3.733793, -1.850434
    3981, -1.185618,  3.736186, -1.827948
    3991, -1.187864,  3.738798, -1.806436
    4001, -1.187947,  3.741449, -1.788543
    4011, -1.186133,  3.743983, -1.775678
    4021, -1.183138,  3.746283, -1.768648
    4031, -1.179938,  3.748278, -1.767824
    4041, -1.177480,  3.749939, -1.773249
    4051, -1.176422,  3.751266, -1.784451
    4061, -1.176945,  3.752273, -1.800424
    4071, -1.178668,  3.752972, -1.819416
    4081, -1.180701,  3.753363, -1.838663
    4091, -1.181836,  3.753428, -1.854494
    4101, -1.180901,  3.753134, -1.863143
    4111, -1.177187,  3.752443, -1.862233
    4121, -1.170759,  3.751313, -1.851960
    4131, -1.162482,  3.749709, -1.834835
    4141, -1.153738,  3.747606, -1.814257
    4151, -1.145978,  3.744986, -1.793116
    4161, -1.140501,  3.741848, -1.773234
    4171, -1.138113,  3.738208, -1.755439
    4181, -1.139039,  3.734109, -1.739922
    4191, -1.143075,  3.729627, -1.726594
    4201, -1.149588,  3.724869, -1.715383
    4211, -1.157679,  3.719974, -1.706453
    4221, -1.166370,  3.715104, -1.700205
    4231, -1.174821,  3.710430, -1.697229
    4241, -1.182472,  3.706118, -1.698191
    4251, -1.189074,  3.702308, -1.703704
    4261, -1.194541,  3.699104, -1.714152
    4271, -1.198752,  3.696566, -1.729434
    4281, -1.201305,  3.694711, -1.748561
    4291, -1.201440,  3.693525, -1.769047
    4301, -1.198202,  3.692972, -1.786520
    4311, -1.190841,  3.693010, -1.794927
    4321, -1.179274,  3.693600, -1.788786
    4331, -1.164354,  3.694714, -1.766626
    4341, -1.147743,  3.696325, -1.732126
    4351, -1.131484,  3.698410, -1.691561
    4361, -1.117559,  3.700932, -1.650572
    4371, -1.107592,  3.703838, -1.612878
    4381, -1.102728,  3.707053, -1.580456
    4391, -1.103621,  3.710481, -1.554219
    4401, -1.110452,  3.714014, -1.534535
    4411, -1.122907,  3.717536, -1.521517
    4421, -1.140112,  3.720936, -1.515191
    4431, -1.160505,  3.724119, -1.515608
    4441, -1.181727,  3.727009, -1.522812
    4451, -1.200686,  3.729553, -1.536852
    4461, -1.214050,  3.731706, -1.557700
    4471, -1.219254,  3.733443, -1.585002
    4481, -1.215570,  3.734746, -1.617629
    4491, -1.204428,  3.735599, -1.652704
    4501, -1.188668,  3.735983, -1.684789
    4511, -1.171383,  3.735880, -1.705690
    4521, -1.155102,  3.735271, -1.707209
    4531, -1.141495,  3.734149, -1.686896
    4541, -1.131420,  3.732523, -1.650123
    4551, -1.125089,  3.730423, -1.605654
    4561, -1.122247,  3.727907, -1.560706
    4571, -1.122329,  3.725055, -1.519605
    4581, -1.124616,  3.721961, -1.484516
    4591, -1.128375,  3.718713, -1.456415
    4601, -1.132983,  3.715390, -1.435720
    4611, -1.138019,  3.712055, -1.422615
    4621, -1.143307,  3.708738, -1.417276
    4631, -1.148909,  3.705436, -1.419896
    4641, -1.155065,  3.702128, -1.430654
    4651, -1.162097,  3.698789, -1.449687
    4661, -1.170308,  3.695404, -1.477010
    4671, -1.179778,  3.691981, -1.512205
    4681, -1.190227,  3.688554, -1.553792
    4691, -1.200823,  3.685181, -1.598193
    4701, -1.210112,  3.681936, -1.638395
    4711, -1.216183,  3.678897, -1.664080
    4721, -1.217187,  3.676134, -1.666385
    4731, -1.212109,  3.673695, -1.645244
    4741, -1.201365,  3.671600, -1.609485
    4751, -1.186769,  3.669835, -1.569533
    4761, -1.170901,  3.668358, -1.532588
    4771, -1.156361,  3.667095, -1.502401
    4781, -1.145286,  3.665938, -1.480523
    4791, -1.139189,  3.664785, -1.467577
    4801, -1.138994,  3.663540, -1.463638
    4811, -1.145107,  3.662123, -1.468588
    4821, -1.157449,  3.660470, -1.482214
    4831, -1.175411,  3.658533, -1.504132
    4841, -1.197721,  3.656274, -1.533626
    4851, -1.222259,  3.653653, -1.569359
    4861, -1.245977,  3.650627, -1.608929
    4871, -1.265196,  3.647151, -1.648409
    4881, -1.276549,  3.643175, -1.682375
    4891, -1.278339,  3.638665, -1.705259
    4901, -1.271339,  3.633602, -1.714019
    4911, -1.258292,  3.628001, -1.710056
    4921, -1.242597,  3.621904, -1.698063
    4931, -1.227226,  3.615385, -1.683353
    4941, -1.214309,  3.608544, -1.669817
    4951, -1.205175,  3.601495, -1.659572
    4961, -1.200550,  3.594360, -1.653546
    4971, -1.200741,  3.587264, -1.651736
    4981, -1.205740,  3.580329, -1.653528
    4991, -1.215239,  3.573674, -1.657948
    5001, -1.228594,  3.567415, -1.663830
    5011, -1.244726,  3.561667, -1.670039
    5021, -1.262041,  3.556538, -1.675557
    5031, -1.278441,  3.552132, -1.679776
    5041, -1.291566,  3.548541, -1.682634
    5051, -1.299339,  3.545839, -1.684566
    5061, -1.300655,  3.544078, -1.686344
    5071, -1.295817,  3.543279, -1.688722
    5081, -1.286394,  3.543429, -1.692516
    5091, -1.274612,  3.544483, -1.698078
    5101, -1.262703,  3.546357, -1.705155
    5111, -1.252500,  3.548941, -1.712964
    5121, -1.245305,  3.552097, -1.720282
    5131, -1.241922,  3.555678, -1.725572
    5141, -1.242723,  3.559527, -1.727481
    5151, -1.247702,  3.563497, -1.725292
    5161, -1.256490,  3.567453, -1.719220
    5171, -1.268307,  3.571280, -1.710365
    5181, -1.281929,  3.574878, -1.700335
    5191, -1.295679,  3.578168, -1.690800
    5201, -1.307561,  3.581078, -1.683153
    5211, -1.315623,  3.583546, -1.678368
    5221, -1.318508,  3.585507, -1.676955
    5231, -1.315943,  3.586897, -1.678974
    5241, -1.308852,  3.587652, -1.684049
    5251, -1.299015,  3.587710, -1.691384
    5261, -1.288495,  3.587016, -1.699819
    5271, -1.279149,  3.585525, -1.707949
    5281, -1.272374,  3.583199, -1.714343
    5291, -1.269034,  3.580017, -1.717849
    5301, -1.269480,  3.575960, -1.717962
    5311, -1.273591,  3.571020, -1.714589
    5321, -1.280804,  3.565194, -1.708425
    5331, -1.290156,  3.558481, -1.700630
    5341, -1.300360,  3.550887, -1.692487
    5351, -1.309958,  3.542424, -1.685259
    5361, -1.317592,  3.533110, -1.680034
    5371, -1.322312,  3.522973, -1.677649
    5381, -1.323824,  3.512050, -1.678678
    5391, -1.322532,  3.500388, -1.683569
    5401, -1.319345,  3.488044, -1.692459
    5411, -1.315374,  3.475087, -1.705133
    5421, -1.311644,  3.461591, -1.720944
    5431, -1.308916,  3.447640, -1.738689
    5441, -1.307617,  3.433333, -1.756514
    5451, -1.307853,  3.418778, -1.771987
    5461, -1.309457,  3.404103, -1.782506
    5471, -1.312067,  3.389447, -1.786088
    5481, -1.315207,  3.374970, -1.782165
    5491, -1.318390,  3.360849, -1.772078
    5501, -1.321210,  3.347283, -1.758396
    5511, -1.323419,  3.334493, -1.743968
    5521, -1.324967,  3.322713, -1.731306
    5531, -1.325997,  3.312182, -1.722263
    5541, -1.326791,  3.303128, -1.717977
    5551, -1.327694,  3.295744, -1.719018
    5561, -1.329033,  3.290172, -1.725495
    5571, -1.331048,  3.286475, -1.736955
    5581, -1.333857,  3.284628, -1.752472
    5591, -1.337429,  3.284514, -1.770647
    5601, -1.341597,  3.285928, -1.789617
    5611, -1.346065,  3.288603, -1.807256
    5621, -1.350444,  3.292231, -1.821581
    5631, -1.354292,  3.296489, -1.831277
    5641, -1.357163,  3.301066, -1.836076
    5651, -1.358676,  3.305678, -1.836739
    5661, -1.358575,  3.310075, -1.834643
    5671, -1.356797,  3.314046, -1.831254
    5681, -1.353505,  3.317416, -1.827787
    5691, -1.349090,  3.320043, -1.825033
    5701, -1.344123,  3.321811, -1.823386
    5711, -1.339282,  3.322624, -1.822951
    5721, -1.335257,  3.322397, -1.823625
    5731, -1.332676,  3.321079, -1.825160
    5741, -1.332040,  3.318654, -1.827321
    5751, -1.333674,  3.315117, -1.829718
    5761, -1.337702,  3.310487, -1.831906
    5771, -1.344018,  3.304814, -1.833437
    5781, -1.352268,  3.298167, -1.833945
    5791, -1.361842,  3.290641, -1.833238
    5801, -1.371894,  3.282345, -1.831359
    5811, -1.381399,  3.273396, -1.828589
    5821, -1.389288,  3.263907, -1.825394
    5831, -1.394627,  3.253976, -1.822326
    5841, -1.396811,  3.243676, -1.819915
    5851, -1.395693,  3.233058, -1.818590
    5861, -1.391597,  3.222128, -1.818645
    5871, -1.385198,  3.210855, -1.820234
    5881, -1.377357,  3.199170, -1.823389
    5891, -1.368951,  3.186985, -1.828038
    5901, -1.360776,  3.174206, -1.834007
    5911, -1.353503,  3.160787, -1.841025
    5921, -1.347677,  3.146745, -1.848682
    5931, -1.343746,  3.132174, -1.856436
    5941, -1.342076,  3.117258, -1.863702
    5951, -1.342950,  3.102265, -1.869890
    5961, -1.346589,  3.087519, -1.874518
    5971, -1.353073,  3.073364, -1.877322
    5981, -1.362251,  3.060102, -1.878305
    5991, -1.373720,  3.047939, -1.877712
    6001, -1.386689,  3.036941, -1.875942
    6011, -1.399934,  3.027020, -1.873435
    6021, -1.411844,  3.017956, -1.870567
    6031, -1.420672,  3.009436, -1.867604
    6041, -1.424980,  3.001109, -1.864699
    6051, -1.424143,  2.992643, -1.861939
    6061, -1.418612,  2.983745, -1.859417
    6071, -1.409758,  2.974209, -1.857309
    6081, -1.399401,  2.963931, -1.855927
    6091, -1.389295,  2.952907, -1.855733
    6101, -1.380825,  2.941223, -1.857308
    6111, -1.374878,  2.929047, -1.861296
    6121, -1.371837,  2.916607, -1.868319
    6131, -1.371657,  2.904170, -1.878868
    6141, -1.373947,  2.892011, -1.893213
    6151, -1.378056,  2.880369, -1.911209
    6161, -1.383179,  2.869411, -1.932141
    6171, -1.388470,  2.859198, -1.954463
    6181, -1.393168,  2.849666, -1.975614
    6191, -1.396714,  2.840638, -1.992148
    6201, -1.398835,  2.831855, -2.000500
    6211, -1.399570,  2.823021, -1.998371
    6221, -1.399233,  2.813859, -1.985990
    6231, -1.398343,  2.804157, -1.966010
    6241, -1.397520,  2.793799, -1.942185
    6251, -1.397385,  2.782800, -1.918032
    6261, -1.398471,  2.771305, -1.896203
    6271, -1.401146,  2.759584, -1.878459
    6281, -1.405539,  2.748007, -1.865886
    6291, -1.411490,  2.737007, -1.859138
    6301, -1.418515,  2.727025, -1.858599
    6311, -1.425810,  2.718444, -1.864477
    6321, -1.432333,  2.711538, -1.876808
    6331, -1.436986,  2.706420, -1.895416
    6341, -1.438876,  2.703043, -1.919728
    6351, -1.437587,  2.701220, -1.948357
    6361, -1.433333,  2.700680, -1.978571
    6371, -1.426907,  2.701124, -2.006051
    6381, -1.419456,  2.702276, -2.025401
    6391, -1.412200,  2.703914, -2.031655
    6401, -1.406156,  2.705872, -2.023166
    6411, -1.402088,  2.708047, -2.003019
    6421, -1.400354,  2.710374, -1.976777
    6431, -1.400848,  2.712823, -1.949742
    6441, -1.403157,  2.715391, -1.925647
    6451, -1.406559,  2.718096, -1.906659
    6461, -1.410174,  2.720969, -1.893832
    6471, -1.413166,  2.724039, -1.887512
    6481, -1.414986,  2.727311, -1.887581
    6491, -1.415561,  2.730752, -1.893555
    6501, -1.415358,  2.734274, -1.904572
    6511, -1.415271,  2.737734, -1.919428
    6521, -1.416394,  2.740949, -1.936379
    6531, -1.419778,  2.743724, -1.953108
    6541, -1.426172,  2.745886, -1.966881
    6551, -1.435823,  2.747325, -1.975491
    6561, -1.448277,  2.748023, -1.977453
    6571, -1.462196,  2.748087, -1.972733
    6581, -1.475269,  2.747746, -1.962706
    6591, -1.484448,  2.747345, -1.949602
    6601, -1.486768,  2.747296, -1.935823
    6611, -1.480590,  2.748010, -1.923465
    6621, -1.466509,  2.749811, -1.914124
    6631, -1.447117,  2.752850, -1.908885
    6641, -1.425866,  2.757048, -1.908374
    6651, -1.405972,  2.762094, -1.912777
    6661, -1.389901,  2.767496, -1.921807
    6671, -1.379324,  2.772657, -1.934595
    6681, -1.375286,  2.776969, -1.949519
    6691, -1.378372,  2.779893, -1.964092
    6701, -1.388783,  2.781018, -1.975107
    6711, -1.406317,  2.780097, -1.979289
    6721, -1.430186,  2.777074, -1.974448
    6731, -1.458663,  2.772085, -1.960635
    6741, -1.488582,  2.765460, -1.940051
    6751, -1.515020,  2.757681, -1.916114
    6761, -1.531982,  2.749373, -1.892095
    6771, -1.534823,  2.741317, -1.870616
    6781, -1.523131,  2.734232, -1.853535
    6791, -1.501004,  2.728675, -1.842103
    6801, -1.474382,  2.724927, -1.837013
    6811, -1.448395,  2.722944, -1.838309
    6821, -1.426429,  2.722391, -1.845834
    6831, -1.410361,  2.722744, -1.858946
    6841, -1.401061,  2.723410, -1.876345
    6851, -1.398777,  2.723833, -1.895876
    6861, -1.403343,  2.723555, -1.914437
    6871, -1.414221,  2.722243, -1.928318
    6881, -1.430462,  2.719681, -1.934253
    6891, -1.450538,  2.715738, -1.930768
    6901, -1.472153,  2.710350, -1.918981
    6911, -1.492222,  2.703479, -1.901967
    6921, -1.507260,  2.695091, -1.883383
    6931, -1.514380,  2.685145, -1.866151
    6941, -1.512525,  2.673598, -1.852311
    6951, -1.502983,  2.660431, -1.843207
    6961, -1.488706,  2.645705, -1.839202
    6971, -1.473052,  2.629626, -1.840085
    6981, -1.458840,  2.612533, -1.845088
    6991, -1.448022,  2.594952, -1.853070
    7001, -1.441722,  2.577599, -1.862713
    7011, -1.440400,  2.561341, -1.872296
    7021, -1.443985,  2.547091, -1.880106
    7031, -1.451947,  2.535642, -1.884854
    7041, -1.463302,  2.527480, -1.885999
    7051, -1.476619,  2.522640, -1.883888
    7061, -1.490074,  2.520689, -1.879572
    7071, -1.501655,  2.520836, -1.874417
    7081, -1.509605,  2.522126, -1.869659
    7091, -1.512831,  2.523619, -1.866249
    7101, -1.511355,  2.524526, -1.864902
    7111, -1.506214,  2.524261, -1.865540