 variables=iter,cl,cd,cm,clim,cdim,cmim,clip,cdip,cmip,cljm,cdjm,cmjm,cljp,cdjp,cmjp
 zone t ="coefhist", f=point
       1  7.512031E-02  1.860610E-02 -3.773941E-02  0.000000E+00  0.000000E+00  0.000000E+00  0.000000E+00  0.000000E+00  0.000000E+00  7.512031E-02  1.860610E-02 -3.773941E-02  0.000000E+00  0.000000E+00  0.000000E+00
      11  6.667199E-01  1.739248E-01 -3.375226E-01  0.000000E+00  0.000000E+00  0.000000E+00  0.000000E+00  0.000000E+00  0.000000E+00  6.667199E-01  1.739248E-01 -3.375226E-01  0.000000E+00  0.000000E+00  0.000000E+00
      21  8.779445E-01  2.549806E-01 -4.448736E-01  0.000000E+00  0.000000E+00  0.000000E+00  0.000000E+00  0.000000E+00  0.000000E+00  8.779445E-01  2.549806E-01 -4.448736E-01  0.000000E+00  0.000000E+00  0.000000E+00
      31  8.277751E-01  2.755766E-01 -4.158287E-01  0.000000E+00  0.000000E+00  0.000000E+00  0.000000E+00  0.000000E+00  0.000000E+00  8.277751E-01  2.755766E-01 -4.158287E-01  0.000000E+00  0.000000E+00  0.000000E+00
      41  7.119824E-01  2.668280E-01 -3.520247E-01  0.000000E+00  0.000000E+00  0.000000E+00  0.000000E+00  0.000000E+00  0.000000E+00  7.119824E-01  2.668280E-01 -3.520247E-01  0.000000E+00  0.000000E+00  0.000000E+00
      51  6.262073E-01  2.485144E-01 -3.039423E-01  0.000000E+00  0.000000E+00  0.000000E+00  0.000000E+00  0.000000E+00  0.000000E+00  6.262073E-01  2.485144E-01 -3.039423E-01  0.000000E+00  0.000000E+00  0.000000E+00
      61  5.741252E-01  2.276814E-01 -2.728289E-01  0.000000E+00  0.000000E+00  0.000000E+00  0.000000E+00  0.000000E+00  0.000000E+00  5.741252E-01  2.276814E-01 -2.728289E-01  0.000000E+00  0.000000E+00  0.000000E+00
      71  5.328492E-01  2.061045E-01 -2.458505E-01  0.000000E+00  0.000000E+00  0.000000E+00  0.000000E+00  0.000000E+00  0.000000E+00  5.328492E-01  2.061045E-01 -2.458505E-01  0.000000E+00  0.000000E+00  0.000000E+00
      81  4.899564E-01  1.845982E-01 -2.166126E-01  0.000000E+00  0.000000E+00  0.000000E+00  0.000000E+00  0.000000E+00  0.000000E+00  4.899564E-01  1.845982E-01 -2.166126E-01  0.000000E+00  0.000000E+00  0.000000E+00
      91  4.456042E-01  1.634778E-01 -1.860089E-01  0.000000E+00  0.000000E+00  0.000000E+00  0.000000E+00  0.000000E+00  0.000000E+00  4.456042E-01  1.634778E-01 -1.860089E-01  0.000000E+00  0.000000E+00  0.000000E+00
     101  4.037311E-01  1.422161E-01 -1.567363E-01  0.000000E+00  0.000000E+00  0.000000E+00  0.000000E+00  0.000000E+00  0.000000E+00  4.037311E-01  1.422161E-01 -1.567363E-01  0.000000E+00  0.000000E+00  0.000000E+00
     111  3.667577E-01  1.197649E-01 -1.301704E-01  0.000000E+00  0.000000E+00  0.000000E+00  0.000000E+00  0.000000E+00  0.000000E+00  3.667577E-01  1.197649E-01 -1.301704E-01  0.000000E+00  0.000000E+00  0.000000E+00
     121  3.350580E-01  9.528226E-02 -1.062966E-01  0.000000E+00  0.000000E+00  0.000000E+00  0.000000E+00  0.000000E+00  0.000000E+00  3.350580E-01  9.528226E-02 -1.062966E-01  0.000000E+00  0.000000E+00  0.000000E+00
     131  3.081349E-01  6.865139E-02 -8.465181E-02  0.000000E+00  0.000000E+00  0.000000E+00  0.000000E+00  0.000000E+00  0.000000E+00  3.081349E-01  6.865139E-02 -8.465181E-02  0.000000E+00  0.000000E+00  0.000000E+00
     141  2.853898E-01  4.055352E-02 -6.494105E-02  0.000000E+00  0.000000E+00  0.000000E+00  0.000000E+00  0.000000E+00  0.000000E+00  2.853898E-01  4.055352E-02 -6.494105E-02  0.000000E+00  0.000000E+00  0.000000E+00
     151  2.661531E-01  1.221019E-02 -4.712458E-02  0.000000E+00  0.000000E+00  0.000000E+00  0.000000E+00  0.000000E+00  0.000000E+00  2.661531E-01  1.221019E-02 -4.712458E-02  0.000000E+00  0.000000E+00  0.000000E+00
     161  2.495090E-01 -1.498199E-02 -3.127107E-02  0.000000E+00  0.000000E+00  0.000000E+00  0.000000E+00  0.000000E+00  0.000000E+00  2.495090E-01 -1.498199E-02 -3.127107E-02  0.000000E+00  0.000000E+00  0.000000E+00
     171  2.343276E-01 -3.976083E-02 -1.742859E-02  0.000000E+00  0.000000E+00  0.000000E+00  0.000000E+00  0.000000E+00  0.000000E+00  2.343276E-01 -3.976083E-02 -1.742859E-02  0.000000E+00  0.000000E+00  0.000000E+00
     181  2.195276E-01 -6.117789E-02 -5.577791E-03  0.000000E+00  0.000000E+00  0.000000E+00  0.000000E+00  0.000000E+00  0.000000E+00  2.195276E-01 -6.117789E-02 -5.577791E-03  0.000000E+00  0.000000E+00  0.000000E+00
     191  2.043623E-01 -7.863634E-02  4.367809E-03  0.000000E+00  0.000000E+00  0.000000E+00  0.000000E+00  0.000000E+00  0.000000E+00  2.043623E-01 -7.863634E-02  4.367809E-03  0.000000E+00  0.000000E+00  0.000000E+00
     201  1.885629E-01 -9.181830E-02  1.252780E-02  0.000000E+00  0.000000E+00  0.000000E+00  0.000000E+00  0.000000E+00  0.000000E+00  1.885629E-01 -9.181830E-02  1.252780E-02  0.000000E+00  0.000000E+00  0.000000E+00
     211  1.720187E-01 -1.006178E-01  1.909668E-02  0.000000E+00  0.000000E+00  0.000000E+00  0.000000E+00  0.000000E+00  0.000000E+00  1.720187E-01 -1.006178E-01  1.909668E-02  0.000000E+00  0.000000E+00  0.000000E+00
     221  1.545172E-01 -1.051432E-01  2.444394E-02  0.000000E+00  0.000000E+00  0.000000E+00  0.000000E+00  0.000000E+00  0.000000E+00  1.545172E-01 -1.051432E-01  2.444394E-02  0.000000E+00  0.000000E+00  0.000000E+00
     231  1.359451E-01 -1.056876E-01  2.904518E-02  0.000000E+00  0.000000E+00  0.000000E+00  0.000000E+00  0.000000E+00  0.000000E+00  1.359451E-01 -1.056876E-01  2.904518E-02  0.000000E+00  0.000000E+00  0.000000E+00
     241  1.164904E-01 -1.026917E-01  3.331337E-02  0.000000E+00  0.000000E+00  0.000000E+00  0.000000E+00  0.000000E+00  0.000000E+00  1.164904E-01 -1.026917E-01  3.331337E-02  0.000000E+00  0.000000E+00  0.000000E+00
     251  9.657355E-02 -9.673543E-02  3.749927E-02  0.000000E+00  0.000000E+00  0.000000E+00  0.000000E+00  0.000000E+00  0.000000E+00  9.657355E-02 -9.673543E-02  3.749927E-02  0.000000E+00  0.000000E+00  0.000000E+00
     261  7.671116E-02 -8.852845E-02  4.168196E-02  0.000000E+00  0.000000E+00  0.000000E+00  0.000000E+00  0.000000E+00  0.000000E+00  7.671116E-02 -8.852845E-02  4.168196E-02  0.000000E+00  0.000000E+00  0.000000E+00
     271  5.752984E-02 -7.885185E-02  4.576204E-02  0.000000E+00  0.000000E+00  0.000000E+00  0.000000E+00  0.000000E+00  0.000000E+00  5.752984E-02 -7.885185E-02  4.576204E-02  0.000000E+00  0.000000E+00  0.000000E+00
     281  3.983838E-02 -6.845828E-02  4.944692E-02  0.000000E+00  0.000000E+00  0.000000E+00  0.000000E+00  0.000000E+00  0.000000E+00  3.983838E-02 -6.845828E-02  4.944692E-02  0.000000E+00  0.000000E+00  0.000000E+00
     291  2.460888E-02 -5.797910E-02  5.227373E-02  0.000000E+00  0.000000E+00  0.000000E+00  0.000000E+00  0.000000E+00  0.000000E+00  2.460888E-02 -5.797910E-02  5.227373E-02  0.000000E+00  0.000000E+00  0.000000E+00
     301  1.287504E-02 -4.787265E-02  5.367604E-02  0.000000E+00  0.000000E+00  0.000000E+00  0.000000E+00  0.000000E+00  0.000000E+00  1.287504E-02 -4.787265E-02  5.367604E-02  0.000000E+00  0.000000E+00  0.000000E+00
     311  5.634850E-03 -3.841894E-02  5.306981E-02  0.000000E+00  0.000000E+00  0.000000E+00  0.000000E+00  0.000000E+00  0.000000E+00  5.634850E-03 -3.841894E-02  5.306981E-02  0.000000E+00  0.000000E+00  0.000000E+00
     321  3.785121E-03 -2.974975E-02  4.995510E-02  0.000000E+00  0.000000E+00  0.000000E+00  0.000000E+00  0.000000E+00  0.000000E+00  3.785121E-03 -2.974975E-02  4.995510E-02  0.000000E+00  0.000000E+00  0.000000E+00
     331  8.019402E-03 -2.190056E-02  4.405592E-02  0.000000E+00  0.000000E+00  0.000000E+00  0.000000E+00  0.000000E+00  0.000000E+00  8.019402E-03 -2.190056E-02  4.405592E-02  0.000000E+00  0.000000E+00  0.000000E+00
     341  1.862835E-02 -1.486702E-02  3.548389E-02  0.000000E+00  0.000000E+00  0.000000E+00  0.000000E+00  0.000000E+00  0.000000E+00  1.862835E-02 -1.486702E-02  3.548389E-02  0.000000E+00  0.000000E+00  0.000000E+00
     351  3.526080E-02 -8.650588E-03  2.483467E-02  0.000000E+00  0.000000E+00  0.000000E+00  0.000000E+00  0.000000E+00  0.000000E+00  3.526080E-02 -8.650588E-03  2.483467E-02  0.000000E+00  0.000000E+00  0.000000E+00
     361  5.681849E-02 -3.283390E-03  1.310340E-02  0.000000E+00  0.000000E+00  0.000000E+00  0.000000E+00  0.000000E+00  0.000000E+00  5.681849E-02 -3.283390E-03  1.310340E-02  0.000000E+00  0.000000E+00  0.000000E+00
     371  8.163357E-02  1.172951E-03  1.396251E-03  0.000000E+00  0.000000E+00  0.000000E+00  0.000000E+00  0.000000E+00  0.000000E+00  8.163357E-02  1.172951E-03  1.396251E-03  0.000000E+00  0.000000E+00  0.000000E+00
     381  1.078945E-01  4.652425E-03 -9.432625E-03  0.000000E+00  0.000000E+00  0.000000E+00  0.000000E+00  0.000000E+00  0.000000E+00  1.078945E-01  4.652425E-03 -9.432625E-03  0.000000E+00  0.000000E+00  0.000000E+00
     391  1.341012E-01  7.126031E-03 -1.901245E-02  0.000000E+00  0.000000E+00  0.000000E+00  0.000000E+00  0.000000E+00  0.000000E+00  1.341012E-01  7.126031E-03 -1.901245E-02  0.000000E+00  0.000000E+00  0.000000E+00
     401  1.593205E-01  8.649979E-03 -2.745090E-02  0.000000E+00  0.000000E+00  0.000000E+00  0.000000E+00  0.000000E+00  0.000000E+00  1.593205E-01  8.649979E-03 -2.745090E-02  0.000000E+00  0.000000E+00  0.000000E+00
     411  1.830473E-01  9.374323E-03 -3.506531E-02  0.000000E+00  0.000000E+00  0.000000E+00  0.000000E+00  0.000000E+00  0.000000E+00  1.830473E-01  9.374323E-03 -3.506531E-02  0.000000E+00  0.000000E+00  0.000000E+00
     421  2.050143E-01  9.514840E-03 -4.208248E-02  0.000000E+00  0.000000E+00  0.000000E+00  0.000000E+00  0.000000E+00  0.000000E+00  2.050143E-01  9.514840E-03 -4.208248E-02  0.000000E+00  0.000000E+00  0.000000E+00
     431  2.251039E-01  9.327537E-03 -4.858356E-02  0.000000E+00  0.000000E+00  0.000000E+00  0.000000E+00  0.000000E+00  0.000000E+00  2.251039E-01  9.327537E-03 -4.858356E-02  0.000000E+00  0.000000E+00  0.000000E+00
     441  2.432582E-01  9.057088E-03 -5.455050E-02  0.000000E+00  0.000000E+00  0.000000E+00  0.000000E+00  0.000000E+00  0.000000E+00  2.432582E-01  9.057088E-03 -5.455050E-02  0.000000E+00  0.000000E+00  0.000000E+00
     451  2.594527E-01  8.884582E-03 -5.993550E-02  0.000000E+00  0.000000E+00  0.000000E+00  0.000000E+00  0.000000E+00  0.000000E+00  2.594527E-01  8.884582E-03 -5.993550E-02  0.000000E+00  0.000000E+00  0.000000E+00
     461  2.737110E-01  8.900473E-03 -6.471352E-02  0.000000E+00  0.000000E+00  0.000000E+00  0.000000E+00  0.000000E+00  0.000000E+00  2.737110E-01  8.900473E-03 -6.471352E-02  0.000000E+00  0.000000E+00  0.000000E+00
     471  2.861179E-01  9.109990E-03 -6.890328E-02  0.000000E+00  0.000000E+00  0.000000E+00  0.000000E+00  0.000000E+00  0.000000E+00  2.861179E-01  9.109990E-03 -6.890328E-02  0.000000E+00  0.000000E+00  0.000000E+00
     481  2.968114E-01  9.467329E-03 -7.256466E-02  0.000000E+00  0.000000E+00  0.000000E+00  0.000000E+00  0.000000E+00  0.000000E+00  2.968114E-01  9.467329E-03 -7.256466E-02  0.000000E+00  0.000000E+00  0.000000E+00
     491  3.059612E-01  9.930237E-03 -7.578761E-02  0.000000E+00  0.000000E+00  0.000000E+00  0.000000E+00  0.000000E+00  0.000000E+00  3.059612E-01  9.930237E-03 -7.578761E-02  0.000000E+00  0.000000E+00  0.000000E+00
     501  3.137264E-01  1.051716E-02 -7.867814E-02  0.000000E+00  0.000000E+00  0.000000E+00  0.000000E+00  0.000000E+00  0.000000E+00  3.137264E-01  1.051716E-02 -7.867814E-02  0.000000E+00  0.000000E+00  0.000000E+00
     511  3.202054E-01  1.133599E-02 -8.134216E-02  0.000000E+00  0.000000E+00  0.000000E+00  0.000000E+00  0.000000E+00  0.000000E+00  3.202054E-01  1.133599E-02 -8.134216E-02  0.000000E+00  0.000000E+00  0.000000E+00
     521  3.254071E-01  1.255400E-02 -8.386633E-02  0.000000E+00  0.000000E+00  0.000000E+00  0.000000E+00  0.000000E+00  0.000000E+00  3.254071E-01  1.255400E-02 -8.386633E-02  0.000000E+00  0.000000E+00  0.000000E+00
     531  3.292812E-01  1.430839E-02 -8.629602E-02  0.000000E+00  0.000000E+00  0.000000E+00  0.000000E+00  0.000000E+00  0.000000E+00  3.292812E-01  1.430839E-02 -8.629602E-02  0.000000E+00  0.000000E+00  0.000000E+00
     541  3.318246E-01  1.660693E-02 -8.862557E-02  0.000000E+00  0.000000E+00  0.000000E+00  0.000000E+00  0.000000E+00  0.000000E+00  3.318246E-01  1.660693E-02 -8.862557E-02  0.000000E+00  0.000000E+00  0.000000E+00
     551  3.332098E-01  1.926918E-02 -9.080222E-02  0.000000E+00  0.000000E+00  0.000000E+00  0.000000E+00  0.000000E+00  0.000000E+00  3.332098E-01  1.926918E-02 -9.080222E-02  0.000000E+00  0.000000E+00  0.000000E+00
     561  3.338650E-01  2.193257E-02 -9.274001E-02  0.000000E+00  0.000000E+00  0.000000E+00  0.000000E+00  0.000000E+00  0.000000E+00  3.338650E-01  2.193257E-02 -9.274001E-02  0.000000E+00  0.000000E+00  0.000000E+00
     571  3.344473E-01  2.412226E-02 -9.434443E-02  0.000000E+00  0.000000E+00  0.000000E+00  0.000000E+00  0.000000E+00  0.000000E+00  3.344473E-01  2.412226E-02 -9.434443E-02  0.000000E+00  0.000000E+00  0.000000E+00
     581  3.356765E-01  2.536402E-02 -9.554442E-02  0.000000E+00  0.000000E+00  0.000000E+00  0.000000E+00  0.000000E+00  0.000000E+00  3.356765E-01  2.536402E-02 -9.554442E-02  0.000000E+00  0.000000E+00  0.000000E+00
     591  3.380531E-01  2.530232E-02 -9.631453E-02  0.000000E+00  0.000000E+00  0.000000E+00  0.000000E+00  0.000000E+00  0.000000E+00  3.380531E-01  2.530232E-02 -9.631453E-02  0.000000E+00  0.000000E+00  0.000000E+00
     601  3.415935E-01  2.378437E-02 -9.667501E-02  0.000000E+00  0.000000E+00  0.000000E+00  0.000000E+00  0.000000E+00  0.000000E+00  3.415935E-01  2.378437E-02 -9.667501E-02  0.000000E+00  0.000000E+00  0.000000E+00
     611  3.457582E-01  2.088743E-02 -9.667511E-02  0.000000E+00  0.000000E+00  0.000000E+00  0.000000E+00  0.000000E+00  0.000000E+00  3.457582E-01  2.088743E-02 -9.667511E-02  0.000000E+00  0.000000E+00  0.000000E+00
     621  3.496352E-01  1.688507E-02 -9.635814E-02  0.000000E+00  0.000000E+00  0.000000E+00  0.000000E+00  0.000000E+00  0.000000E+00  3.496352E-01  1.688507E-02 -9.635814E-02  0.000000E+00  0.000000E+00  0.000000E+00
     631  3.523252E-01  1.217227E-02 -9.573453E-02  0.000000E+00  0.000000E+00  0.000000E+00  0.000000E+00  0.000000E+00  0.000000E+00  3.523252E-01  1.217227E-02 -9.573453E-02  0.000000E+00  0.000000E+00  0.000000E+00
     641  3.533416E-01  7.189142E-03 -9.480308E-02  0.000000E+00  0.000000E+00  0.000000E+00  0.000000E+00  0.000000E+00  0.000000E+00  3.533416E-01  7.189142E-03 -9.480308E-02  0.000000E+00  0.000000E+00  0.000000E+00
     651  3.527335E-01  2.345922E-03 -9.357062E-02  0.000000E+00  0.000000E+00  0.000000E+00  0.000000E+00  0.000000E+00  0.000000E+00  3.527335E-01  2.345922E-03 -9.357062E-02  0.000000E+00  0.000000E+00  0.000000E+00
     661  3.509221E-01 -2.044279E-03 -9.204375E-02  0.000000E+00  0.000000E+00  0.000000E+00  0.000000E+00  0.000000E+00  0.000000E+00  3.509221E-01 -2.044279E-03 -9.204375E-02  0.000000E+00  0.000000E+00  0.000000E+00
     671  3.484499E-01 -5.804164E-03 -9.021961E-02  0.000000E+00  0.000000E+00  0.000000E+00  0.000000E+00  0.000000E+00  0.000000E+00  3.484499E-01 -5.804164E-03 -9.021961E-02  0.000000E+00  0.000000E+00  0.000000E+00
     681  3.458188E-01 -8.887683E-03 -8.810680E-02  0.000000E+00  0.000000E+00  0.000000E+00  0.000000E+00  0.000000E+00  0.000000E+00  3.458188E-01 -8.887683E-03 -8.810680E-02  0.000000E+00  0.000000E+00  0.000000E+00
     691  3.434227E-01 -1.134166E-02 -8.576396E-02  0.000000E+00  0.000000E+00  0.000000E+00  0.000000E+00  0.000000E+00  0.000000E+00  3.434227E-01 -1.134166E-02 -8.576396E-02  0.000000E+00  0.000000E+00  0.000000E+00
     701  3.415086E-01 -1.325965E-02 -8.331542E-02  0.000000E+00  0.000000E+00  0.000000E+00  0.000000E+00  0.000000E+00  0.000000E+00  3.415086E-01 -1.325965E-02 -8.331542E-02  0.000000E+00  0.000000E+00  0.000000E+00
     711  3.401457E-01 -1.474525E-02 -8.093110E-02  0.000000E+00  0.000000E+00  0.000000E+00  0.000000E+00  0.000000E+00  0.000000E+00  3.401457E-01 -1.474525E-02 -8.093110E-02  0.000000E+00  0.000000E+00  0.000000E+00
     721  3.392302E-01 -1.588867E-02 -7.878725E-02  0.000000E+00  0.000000E+00  0.000000E+00  0.000000E+00  0.000000E+00  0.000000E+00  3.392302E-01 -1.588867E-02 -7.878725E-02  0.000000E+00  0.000000E+00  0.000000E+00
     731  3.385370E-01 -1.675471E-02 -7.702681E-02  0.000000E+00  0.000000E+00  0.000000E+00  0.000000E+00  0.000000E+00  0.000000E+00  3.385370E-01 -1.675471E-02 -7.702681E-02  0.000000E+00  0.000000E+00  0.000000E+00
     741  3.378084E-01 -1.737860E-02 -7.573326E-02  0.000000E+00  0.000000E+00  0.000000E+00  0.000000E+00  0.000000E+00  0.000000E+00  3.378084E-01 -1.737860E-02 -7.573326E-02  0.000000E+00  0.000000E+00  0.000000E+00
     751  3.368434E-01 -1.776856E-02 -7.492019E-02  0.000000E+00  0.000000E+00  0.000000E+00  0.000000E+00  0.000000E+00  0.000000E+00  3.368434E-01 -1.776856E-02 -7.492019E-02  0.000000E+00  0.000000E+00  0.000000E+00
     761  3.355561E-01 -1.791380E-02 -7.453641E-02  0.000000E+00  0.000000E+00  0.000000E+00  0.000000E+00  0.000000E+00  0.000000E+00  3.355561E-01 -1.791380E-02 -7.453641E-02  0.000000E+00  0.000000E+00  0.000000E+00
     771  3.339867E-01 -1.779613E-02 -7.448424E-02  0.000000E+00  0.000000E+00  0.000000E+00  0.000000E+00  0.000000E+00  0.000000E+00  3.339867E-01 -1.779613E-02 -7.448424E-02  0.000000E+00  0.000000E+00  0.000000E+00
     781  3.322689E-01 -1.740242E-02 -7.464560E-02  0.000000E+00  0.000000E+00  0.000000E+00  0.000000E+00  0.000000E+00  0.000000E+00  3.322689E-01 -1.740242E-02 -7.464560E-02  0.000000E+00  0.000000E+00  0.000000E+00
     791  3.305747E-01 -1.673458E-02 -7.490915E-02  0.000000E+00  0.000000E+00  0.000000E+00  0.000000E+00  0.000000E+00  0.000000E+00  3.305747E-01 -1.673458E-02 -7.490915E-02  0.000000E+00  0.000000E+00  0.000000E+00
     801  3.290631E-01 -1.581464E-02 -7.519331E-02  0.000000E+00  0.000000E+00  0.000000E+00  0.000000E+00  0.000000E+00  0.000000E+00  3.290631E-01 -1.581464E-02 -7.519331E-02  0.000000E+00  0.000000E+00  0.000000E+00
     811  3.278475E-01 -1.468408E-02 -7.545939E-02  0.000000E+00  0.000000E+00  0.000000E+00  0.000000E+00  0.000000E+00  0.000000E+00  3.278475E-01 -1.468408E-02 -7.545939E-02  0.000000E+00  0.000000E+00  0.000000E+00
     821  3.269884E-01 -1.339861E-02 -7.571214E-02  0.000000E+00  0.000000E+00  0.000000E+00  0.000000E+00  0.000000E+00  0.000000E+00  3.269884E-01 -1.339861E-02 -7.571214E-02  0.000000E+00  0.000000E+00  0.000000E+00
     831  3.265060E-01 -1.202021E-02 -7.598892E-02  0.000000E+00  0.000000E+00  0.000000E+00  0.000000E+00  0.000000E+00  0.000000E+00  3.265060E-01 -1.202021E-02 -7.598892E-02  0.000000E+00  0.000000E+00  0.000000E+00
     841  3.264017E-01 -1.060861E-02 -7.634189E-02  0.000000E+00  0.000000E+00  0.000000E+00  0.000000E+00  0.000000E+00  0.000000E+00  3.264017E-01 -1.060861E-02 -7.634189E-02  0.000000E+00  0.000000E+00  0.000000E+00
     851  3.266780E-01 -9.214240E-03 -7.681870E-02  0.000000E+00  0.000000E+00  0.000000E+00  0.000000E+00  0.000000E+00  0.000000E+00  3.266780E-01 -9.214240E-03 -7.681870E-02  0.000000E+00  0.000000E+00  0.000000E+00
     861  3.273494E-01 -7.873932E-03 -7.744703E-02  0.000000E+00  0.000000E+00  0.000000E+00  0.000000E+00  0.000000E+00  0.000000E+00  3.273494E-01 -7.873932E-03 -7.744703E-02  0.000000E+00  0.000000E+00  0.000000E+00
     871  3.284421E-01 -6.609741E-03 -7.822688E-02  0.000000E+00  0.000000E+00  0.000000E+00  0.000000E+00  0.000000E+00  0.000000E+00  3.284421E-01 -6.609741E-03 -7.822688E-02  0.000000E+00  0.000000E+00  0.000000E+00
     881  3.299874E-01 -5.430393E-03 -7.913309E-02  0.000000E+00  0.000000E+00  0.000000E+00  0.000000E+00  0.000000E+00  0.000000E+00  3.299874E-01 -5.430393E-03 -7.913309E-02  0.000000E+00  0.000000E+00  0.000000E+00
     891  3.320111E-01 -4.334639E-03 -8.012595E-02  0.000000E+00  0.000000E+00  0.000000E+00  0.000000E+00  0.000000E+00  0.000000E+00  3.320111E-01 -4.334639E-03 -8.012595E-02  0.000000E+00  0.000000E+00  0.000000E+00
     901  3.345277E-01 -3.315165E-03 -8.116720E-02  0.000000E+00  0.000000E+00  0.000000E+00  0.000000E+00  0.000000E+00  0.000000E+00  3.345277E-01 -3.315165E-03 -8.116720E-02  0.000000E+00  0.000000E+00  0.000000E+00
     911  3.375399E-01 -2.362103E-03 -8.223650E-02  0.000000E+00  0.000000E+00  0.000000E+00  0.000000E+00  0.000000E+00  0.000000E+00  3.375399E-01 -2.362103E-03 -8.223650E-02  0.000000E+00  0.000000E+00  0.000000E+00
     921  3.410407E-01 -1.466257E-03 -8.334100E-02  0.000000E+00  0.000000E+00  0.000000E+00  0.000000E+00  0.000000E+00  0.000000E+00  3.410407E-01 -1.466257E-03 -8.334100E-02  0.000000E+00  0.000000E+00  0.000000E+00
     931  3.450147E-01 -6.214303E-04 -8.451540E-02  0.000000E+00  0.000000E+00  0.000000E+00  0.000000E+00  0.000000E+00  0.000000E+00  3.450147E-01 -6.214303E-04 -8.451540E-02  0.000000E+00  0.000000E+00  0.000000E+00
     941  3.494344E-01  1.736471E-04 -8.581054E-02  0.000000E+00  0.000000E+00  0.000000E+00  0.000000E+00  0.000000E+00  0.000000E+00  3.494344E-01  1.736471E-04 -8.581054E-02  0.000000E+00  0.000000E+00  0.000000E+00
     951  3.542541E-01  9.142585E-04 -8.727538E-02  0.000000E+00  0.000000E+00  0.000000E+00  0.000000E+00  0.000000E+00  0.000000E+00  3.542541E-01  9.142585E-04 -8.727538E-02  0.000000E+00  0.000000E+00  0.000000E+00
     961  3.594018E-01  1.589502E-03 -8.893813E-02  0.000000E+00  0.000000E+00  0.000000E+00  0.000000E+00  0.000000E+00  0.000000E+00  3.594018E-01  1.589502E-03 -8.893813E-02  0.000000E+00  0.000000E+00  0.000000E+00
     971  3.647767E-01  2.183347E-03 -9.079371E-02  0.000000E+00  0.000000E+00  0.000000E+00  0.000000E+00  0.000000E+00  0.000000E+00  3.647767E-01  2.183347E-03 -9.079371E-02  0.000000E+00  0.000000E+00  0.000000E+00
     981  3.702539E-01  2.676708E-03 -9.280159E-02  0.000000E+00  0.000000E+00  0.000000E+00  0.000000E+00  0.000000E+00  0.000000E+00  3.702539E-01  2.676708E-03 -9.280159E-02  0.000000E+00  0.000000E+00  0.000000E+00
     991  3.756961E-01  3.050197E-03 -9.489367E-02  0.000000E+00  0.000000E+00  0.000000E+00  0.000000E+00  0.000000E+00  0.000000E+00  3.756961E-01  3.050197E-03 -9.489367E-02  0.000000E+00  0.000000E+00  0.000000E+00
    1001  3.809702E-01  3.287150E-03 -9.698925E-02  0.000000E+00  0.000000E+00  0.000000E+00  0.000000E+00  0.000000E+00  0.000000E+00  3.809702E-01  3.287150E-03 -9.698925E-02  0.000000E+00  0.000000E+00  0.000000E+00
    1011  3.859647E-01  3.376365E-03 -9.901177E-02  0.000000E+00  0.000000E+00  0.000000E+00  0.000000E+00  0.000000E+00  0.000000E+00  3.859647E-01  3.376365E-03 -9.901177E-02  0.000000E+00  0.000000E+00  0.000000E+00
    1021  3.906016E-01  3.314136E-03 -1.009023E-01  0.000000E+00  0.000000E+00  0.000000E+00  0.000000E+00  0.000000E+00  0.000000E+00  3.906016E-01  3.314136E-03 -1.009023E-01  0.000000E+00  0.000000E+00  0.000000E+00
    1031  3.948435E-01  3.105348E-03 -1.026275E-01  0.000000E+00  0.000000E+00  0.000000E+00  0.000000E+00  0.000000E+00  0.000000E+00  3.948435E-01  3.105348E-03 -1.026275E-01  0.000000E+00  0.000000E+00  0.000000E+00
    1041  3.986919E-01  2.763566E-03 -1.041802E-01  0.000000E+00  0.000000E+00  0.000000E+00  0.000000E+00  0.000000E+00  0.000000E+00  3.986919E-01  2.763566E-03 -1.041802E-01  0.000000E+00  0.000000E+00  0.000000E+00
    1051  4.021803E-01  2.310113E-03 -1.055751E-01  0.000000E+00  0.000000E+00  0.000000E+00  0.000000E+00  0.000000E+00  0.000000E+00  4.021803E-01  2.310113E-03 -1.055751E-01  0.000000E+00  0.000000E+00  0.000000E+00
    1061  4.053618E-01  1.772071E-03 -1.068408E-01  0.000000E+00  0.000000E+00  0.000000E+00  0.000000E+00  0.000000E+00  0.000000E+00  4.053618E-01  1.772071E-03 -1.068408E-01  0.000000E+00  0.000000E+00  0.000000E+00
    1071  4.082937E-01  1.179097E-03 -1.080106E-01  0.000000E+00  0.000000E+00  0.000000E+00  0.000000E+00  0.000000E+00  0.000000E+00  4.082937E-01  1.179097E-03 -1.080106E-01  0.000000E+00  0.000000E+00  0.000000E+00
    1081  4.110246E-01  5.595036E-04 -1.091138E-01  0.000000E+00  0.000000E+00  0.000000E+00  0.000000E+00  0.000000E+00  0.000000E+00  4.110246E-01  5.595036E-04 -1.091138E-01  0.000000E+00  0.000000E+00  0.000000E+00
    1091  4.135876E-01 -6.357503E-05 -1.101707E-01  0.000000E+00  0.000000E+00  0.000000E+00  0.000000E+00  0.000000E+00  0.000000E+00  4.135876E-01 -6.357503E-05 -1.101707E-01  0.000000E+00  0.000000E+00  0.000000E+00
    1101  4.159994E-01 -6.752034E-04 -1.111899E-01  0.000000E+00  0.000000E+00  0.000000E+00  0.000000E+00  0.000000E+00  0.000000E+00  4.159994E-01 -6.752034E-04 -1.111899E-01  0.000000E+00  0.000000E+00  0.000000E+00
    1111  4.182682E-01 -1.269424E-03 -1.121693E-01  0.000000E+00  0.000000E+00  0.000000E+00  0.000000E+00  0.000000E+00  0.000000E+00  4.182682E-01 -1.269424E-03 -1.121693E-01  0.000000E+00  0.000000E+00  0.000000E+00
    1121  4.204042E-01 -1.847548E-03 -1.130995E-01  0.000000E+00  0.000000E+00  0.000000E+00  0.000000E+00  0.000000E+00  0.000000E+00  4.204042E-01 -1.847548E-03 -1.130995E-01  0.000000E+00  0.000000E+00  0.000000E+00
    1131  4.224306E-01 -2.414206E-03 -1.139693E-01  0.000000E+00  0.000000E+00  0.000000E+00  0.000000E+00  0.000000E+00  0.000000E+00  4.224306E-01 -2.414206E-03 -1.139693E-01  0.000000E+00  0.000000E+00  0.000000E+00
    1141  4.243877E-01 -2.972667E-03 -1.147709E-01  0.000000E+00  0.000000E+00  0.000000E+00  0.000000E+00  0.000000E+00  0.000000E+00  4.243877E-01 -2.972667E-03 -1.147709E-01  0.000000E+00  0.000000E+00  0.000000E+00
    1151  4.263286E-01 -3.521324E-03 -1.155025E-01  0.000000E+00  0.000000E+00  0.000000E+00  0.000000E+00  0.000000E+00  0.000000E+00  4.263286E-01 -3.521324E-03 -1.155025E-01  0.000000E+00  0.000000E+00  0.000000E+00
    1161  4.283080E-01 -4.052740E-03 -1.161702E-01  0.000000E+00  0.000000E+00  0.000000E+00  0.000000E+00  0.000000E+00  0.000000E+00  4.283080E-01 -4.052740E-03 -1.161702E-01  0.000000E+00  0.000000E+00  0.000000E+00
    1171  4.303687E-01 -4.555636E-03 -1.167871E-01  0.000000E+00  0.000000E+00  0.000000E+00  0.000000E+00  0.000000E+00  0.000000E+00  4.303687E-01 -4.555636E-03 -1.167871E-01  0.000000E+00  0.000000E+00  0.000000E+00
    1181  4.325289E-01 -5.019139E-03 -1.173709E-01  0.000000E+00  0.000000E+00  0.000000E+00  0.000000E+00  0.000000E+00  0.000000E+00  4.325289E-01 -5.019139E-03 -1.173709E-01  0.000000E+00  0.000000E+00  0.000000E+00
    1191  4.347747E-01 -5.437521E-03 -1.179407E-01  0.000000E+00  0.000000E+00  0.000000E+00  0.000000E+00  0.000000E+00  0.000000E+00  4.347747E-01 -5.437521E-03 -1.179407E-01  0.000000E+00  0.000000E+00  0.000000E+00
    1201  4.370587E-01 -5.813272E-03 -1.185126E-01  0.000000E+00  0.000000E+00  0.000000E+00  0.000000E+00  0.000000E+00  0.000000E+00  4.370587E-01 -5.813272E-03 -1.185126E-01  0.000000E+00  0.000000E+00  0.000000E+00
    1211  4.393059E-01 -6.156874E-03 -1.190955E-01  0.000000E+00  0.000000E+00  0.000000E+00  0.000000E+00  0.000000E+00  0.000000E+00  4.393059E-01 -6.156874E-03 -1.190955E-01  0.000000E+00  0.000000E+00  0.000000E+00
    1221  4.414238E-01 -6.482993E-03 -1.196880E-01  0.000000E+00  0.000000E+00  0.000000E+00  0.000000E+00  0.000000E+00  0.000000E+00  4.414238E-01 -6.482993E-03 -1.196880E-01  0.000000E+00  0.000000E+00  0.000000E+00
    1231  4.433172E-01 -6.804263E-03 -1.202768E-01  0.000000E+00  0.000000E+00  0.000000E+00  0.000000E+00  0.000000E+00  0.000000E+00  4.433172E-01 -6.804263E-03 -1.202768E-01  0.000000E+00  0.000000E+00  0.000000E+00
    1241  4.449043E-01 -7.124799E-03 -1.208375E-01  0.000000E+00  0.000000E+00  0.000000E+00  0.000000E+00  0.000000E+00  0.000000E+00  4.449043E-01 -7.124799E-03 -1.208375E-01  0.000000E+00  0.000000E+00  0.000000E+00
    1251  4.461336E-01 -7.435844E-03 -1.213382E-01  0.000000E+00  0.000000E+00  0.000000E+00  0.000000E+00  0.000000E+00  0.000000E+00  4.461336E-01 -7.435844E-03 -1.213382E-01  0.000000E+00  0.000000E+00  0.000000E+00
    1261  4.469974E-01 -7.715278E-03 -1.217465E-01  0.000000E+00  0.000000E+00  0.000000E+00  0.000000E+00  0.000000E+00  0.000000E+00  4.469974E-01 -7.715278E-03 -1.217465E-01  0.000000E+00  0.000000E+00  0.000000E+00
    1271  4.475369E-01 -7.931486E-03 -1.220369E-01  0.000000E+00  0.000000E+00  0.000000E+00  0.000000E+00  0.000000E+00  0.000000E+00  4.475369E-01 -7.931486E-03 -1.220369E-01  0.000000E+00  0.000000E+00  0.000000E+00
    1281  4.478380E-01 -8.050597E-03 -1.221978E-01  0.000000E+00  0.000000E+00  0.000000E+00  0.000000E+00  0.000000E+00  0.000000E+00  4.478380E-01 -8.050597E-03 -1.221978E-01  0.000000E+00  0.000000E+00  0.000000E+00
    1291  4.480157E-01 -8.044960E-03 -1.222367E-01  0.000000E+00  0.000000E+00  0.000000E+00  0.000000E+00  0.000000E+00  0.000000E+00  4.480157E-01 -8.044960E-03 -1.222367E-01  0.000000E+00  0.000000E+00  0.000000E+00
    1301  4.481929E-01 -7.900348E-03 -1.221803E-01  0.000000E+00  0.000000E+00  0.000000E+00  0.000000E+00  0.000000E+00  0.000000E+00  4.481929E-01 -7.900348E-03 -1.221803E-01  0.000000E+00  0.000000E+00  0.000000E+00
    1311  4.484783E-01 -7.619859E-03 -1.220712E-01  0.000000E+00  0.000000E+00  0.000000E+00  0.000000E+00  0.000000E+00  0.000000E+00  4.484783E-01 -7.619859E-03 -1.220712E-01  0.000000E+00  0.000000E+00  0.000000E+00
    1321  4.489493E-01 -7.223603E-03 -1.219607E-01  0.000000E+00  0.000000E+00  0.000000E+00  0.000000E+00  0.000000E+00  0.000000E+00  4.489493E-01 -7.223603E-03 -1.219607E-01  0.000000E+00  0.000000E+00  0.000000E+00
    1331  4.496433E-01 -6.744604E-03 -1.219005E-01  0.000000E+00  0.000000E+00  0.000000E+00  0.000000E+00  0.000000E+00  0.000000E+00  4.496433E-01 -6.744604E-03 -1.219005E-01  0.000000E+00  0.000000E+00  0.000000E+00
    1341  4.505584E-01 -6.222326E-03 -1.219338E-01  0.000000E+00  0.000000E+00  0.000000E+00  0.000000E+00  0.000000E+00  0.000000E+00  4.505584E-01 -6.222326E-03 -1.219338E-01  0.000000E+00  0.000000E+00  0.000000E+00
    1351  4.516621E-01 -5.695648E-03 -1.220890E-01  0.000000E+00  0.000000E+00  0.000000E+00  0.000000E+00  0.000000E+00  0.000000E+00  4.516621E-01 -5.695648E-03 -1.220890E-01  0.000000E+00  0.000000E+00  0.000000E+00