 variables = x,y,"-cp"
 zone t="Cp_jmin_000"
  0.999950519027277      -7.190906577662312E-006 -0.265047319914580     
  0.999848425210164      -2.202786431364317E-005 -0.265504369389257     
  0.999739869675704      -3.780065359317234E-005 -0.265686502148564     
  0.999624444703074      -5.456621763246607E-005 -0.265903930799318     
  0.999501717822151      -7.239028412913358E-005 -0.266113130593248     
  0.999371229373061      -9.134159109748993E-005 -0.266333087635862     
  0.999232490696408      -1.114911082996622E-004 -0.266613836213250     
  0.999084982597171      -1.329138319585390E-004 -0.266925744103483     
  0.998928151520885      -1.556755472222239E-004 -0.267342257600988     
  0.998761411599954      -1.798608015831939E-004 -0.267802709388486     
  0.998584142577041      -2.055732787485144E-004 -0.268351940969103     
  0.998395683636583      -2.329088285446009E-004 -0.268888359463197     
  0.998195333020306      -2.619692394466767E-004 -0.269534723686904     
  0.997982345559863      -2.928625964649977E-004 -0.270166028662733     
  0.997755927276180      -3.256843802971508E-004 -0.270932683115309     
  0.997515236117857      -3.605419618973648E-004 -0.271672661289611     
  0.997259382938519      -3.975818247866957E-004 -0.272569613900074     
  0.996987423131747      -4.369534440111178E-004 -0.273425650059028     
  0.996698352306457      -4.788022252603622E-004 -0.274458241816533     
  0.996391104685071      -5.232824611467383E-004 -0.275433703867661     
  0.996064545310489      -5.705287757017173E-004 -0.276602817275323     
  0.995717469545085      -6.206793334300211E-004 -0.277697963848791     
  0.995348608774151      -6.739433404937623E-004 -0.278999461209681     
  0.994956618372158      -7.305472983714197E-004 -0.280207511120849     
  0.994540067843589      -7.906977726002855E-004 -0.281633255412062     
  0.994097440802924      -8.546137313532310E-004 -0.282942001279989     
  0.993627115299513      -9.224242087524622E-004 -0.284478579975421     
  0.993127386684681      -9.943626485937631E-004 -0.285873674348226     
  0.992596464885565      -1.070785363111593E-003 -0.287495512755358     
  0.992032440159447      -1.151973027089561E-003 -0.288954785339505     
  0.991433288916790      -1.238211753831788E-003 -0.290633177675601     
  0.990796845563836      -1.329639625047849E-003 -0.292129578831199     
  0.990120843598399      -1.426576958121088E-003 -0.293834366923789     
  0.989402909161396      -1.529527323952683E-003 -0.295324139911515     
  0.988640507745154      -1.638854165885872E-003 -0.297012448009784     
  0.987830936170727      -1.754773418841899E-003 -0.298457536462100     
  0.986971348521761      -1.877585647353976E-003 -0.300086256068278     
  0.986058776549836      -2.007870996242764E-003 -0.301433501898052     
  0.985090076270552      -2.146169626638874E-003 -0.302939397092741     
  0.984061878782684      -2.292691610911109E-003 -0.304141005201816     
  0.982970652698721      -2.447811032850026E-003 -0.305475182996453     
  0.981812729093725      -2.612298116371279E-003 -0.306460437752692     
  0.980584210328237      -2.786736062434320E-003 -0.307545982314683     
  0.979280925188388      -2.971262202179466E-003 -0.308267511469777     
  0.977898557719227      -3.166534808728978E-003 -0.309050951240711     
  0.976432621979564      -3.373612231559043E-003 -0.309403847634433     
  0.974878255807105      -3.592549695914168E-003 -0.309828343004532     
  0.973230431824570      -3.823950261951274E-003 -0.309783431765872     
  0.971483973629757      -4.069132613147735E-003 -0.309723374211992     
  0.969633266134774      -4.328118765340954E-003 -0.309226526630710     
  0.967672524401831      -4.601598941976932E-003 -0.308666487255672     
  0.965595797706436      -4.891000631062736E-003 -0.307583489448046     
  0.963396661946770      -5.196322023475735E-003 -0.306489695109413     
  0.961068558213988      -5.518593757245423E-003 -0.304797736662973     
  0.958604645181734      -5.858830942331594E-003 -0.303055333344889     
  0.955997710370829      -6.217413840325518E-003 -0.300762887272772     
  0.953240403573188      -6.595771835954957E-003 -0.298292393382650     
  0.950324929075312      -6.994133435052222E-003 -0.295378385117083     
  0.947243363824026      -7.413828030933448E-003 -0.292163584054243     
  0.943987401243017      -7.855348486410833E-003 -0.288585988999904     
  0.940548532638629      -8.319645947101835E-003 -0.284657875799383     
  0.936918012072206      -8.807758307222305E-003 -0.280386079942201     
  0.933086820659709      -9.320470120943454E-003 -0.275761348757316     
  0.929045729434505      -9.858610535367778E-003 -0.270828579936443     
  0.924785335229135      -1.042319342430887E-002 -0.265520126198722     
  0.920296001506855      -1.101473943138070E-002 -0.259982970775167     
  0.915568017057546      -1.163428261837557E-002 -0.254056486999083     
  0.910591518904826      -1.228247798053474E-002 -0.247940196260442     
  0.905356539043862      -1.295968439299040E-002 -0.241549485662458     
  0.899853259637222      -1.366754916491486E-002 -0.234848652208643     
  0.894071612625420      -1.440553140223065E-002 -0.228134861871079     
  0.888001926144578      -1.517548130265305E-002 -0.220940432889683     
  0.881634354807102      -1.597666973363707E-002 -0.213918943562443     
  0.874959361825577      -1.680904248481468E-002 -0.206570913860028     
  0.867968048991337      -1.767527645861696E-002 -0.199131623168594     
  0.860651278709354      -1.857306609199097E-002 -0.191721431463082     
  0.853000640736535      -1.950219720676840E-002 -0.184267346676187     
  0.845008605117864      -2.046510145424237E-002 -0.176668925837666     
  0.836667790252263      -2.146004270692975E-002 -0.169226472116854     
  0.827971583017262      -2.248531546583624E-002 -0.161771067355867     
  0.818914520771597      -2.354162889368912E-002 -0.154425310931765     
  0.809492049394791      -2.462921101698074E-002 -0.147059790644393     
  0.799700455259611      -2.574622884337473E-002 -0.139845073101101     
  0.789537101723147      -2.688979892317225E-002 -0.132802202885203     
  0.779000884847340      -2.805910063978264E-002 -0.125901859161344     
  0.768092166110161      -2.925391921276573E-002 -0.119106664544498     
  0.756812605590837      -3.047225173673933E-002 -0.112493704951123     
  0.745165431436640      -3.171185038487789E-002 -0.106008129219825     
  0.733155517081819      -3.297015436139106E-002 -9.966569527871894E-002
  0.720789313138657      -3.424288317751308E-002 -9.362410682036693E-002
  0.708075228679919      -3.552715818510261E-002 -8.774937217380074E-002
  0.695023651807421      -3.682132624975259E-002 -8.206019360634320E-002
  0.681646664067578      -3.812190665922779E-002 -7.657893698409168E-002
  0.667958216944580      -3.942518053748910E-002 -7.126426146954223E-002
  0.653974122495646      -4.072720085239104E-002 -6.616370772026547E-002
  0.639712022977305      -4.202380569099960E-002 -6.123774695227269E-002
  0.625191338641408      -4.331063511566653E-002 -5.652255228715175E-002
  0.610433193276417      -4.458315186273348E-002 -5.199095306593771E-002
  0.595460317506291      -4.583666607350885E-002 -4.766410483611505E-002
  0.580296930324363      -4.706636415496987E-002 -4.352937723463812E-002
  0.564968599819307      -4.826734175769536E-002 -3.958829996950985E-002
  0.549502084529173      -4.943464073421587E-002 -3.586802647130272E-002
  0.533925157321317      -5.056328980674282E-002 -3.244232956476489E-002
  0.518266414124252      -5.164834853448222E-002 -2.936339619744688E-002
  0.502555070216149      -5.268495403348877E-002 -2.660067453960302E-002
  0.486820747089359      -5.366836977267452E-002 -2.419871663104534E-002
  0.471093253148793      -5.459403565457564E-002 -2.212785383387095E-002
  0.455402361654779      -5.545761849489572E-002 -2.045370928533607E-002
  0.439777589382362      -5.625506194609634E-002 -1.914122932848583E-002
  0.424247979436614      -5.698263487182718E-002 -1.827771404932133E-002
  0.408841891539178      -5.763697717396151E-002 -1.782001537264888E-002
  0.393586802890281      -5.821514210420231E-002 -1.787523098361676E-002
  0.378509122421679      -5.871463415791518E-002 -1.838990695991560E-002
  0.363634020900931      -5.913344174779431E-002 -1.948861403761848E-002
  0.348985278939855      -5.947006398655323E-002 -2.110509649313075E-002
  0.334585154514924      -5.972353106721210E-002 -2.337873776762400E-002
  0.320454271140270      -5.989341791193621E-002 -2.622713461340664E-002
  0.306611527360006      -5.997985096032882E-002 -2.980171016142785E-002
  0.293074027759710      -5.998350817985559E-002 -3.399524907161000E-002
  0.279857050150588      -5.990444954595020E-002 -3.896106520997478E-002
  0.266974071532946      -5.974115934648087E-002 -4.489215572609817E-002
  0.254436687765421      -5.949619235958110E-002 -5.165278449053812E-002
  0.242254590418352      -5.917462021453175E-002 -5.922163612302045E-002
  0.230435657346581      -5.877950174230472E-002 -6.770399880718214E-002
  0.218985981513271      -5.831432783584997E-002 -7.695480061943094E-002
  0.207909927033704      -5.778299083409870E-002 -8.712446849348687E-002
  0.197210195764651      -5.718975405655877E-002 -9.803476533210587E-002
  0.186888097128887      -5.653653269590260E-002 -0.109732992451302     
  0.176944048773137      -5.581915391915332E-002 -0.122867907923153     
  0.167376450190071      -5.504393444449614E-002 -0.136639112278019     
  0.158181839537788      -5.422373560443759E-002 -0.151244881869959     
  0.149356008845020      -5.336402775436868E-002 -0.166358491647709     
  0.140894531792397      -5.246270433945201E-002 -0.182280030870374     
  0.132792572598136      -5.151527099780620E-002 -0.199281270861439     
  0.125042648529722      -5.053348438269398E-002 -0.216564867730737     
  0.117635874536503      -4.953175995552651E-002 -0.233848485413448     
  0.110566120219504      -4.849957833915088E-002 -0.252184859071339     
  0.103825710313917      -4.743559307191336E-002 -0.270660333222387     
  9.740302246356181E-002 -4.636046448358892E-002 -0.288583042008359     
  9.128993515794470E-002 -4.526959883528320E-002 -0.307086019554359     
  8.547868265721659E-002 -4.415662563251337E-002 -0.325467045500659     
  7.995619932694853E-002 -4.304174403757182E-002 -0.342499020119216     
  7.471505784356669E-002 -4.191565216614326E-002 -0.360313058633873     
  6.974632251942237E-002 -4.077646030434248E-002 -0.376736558827473     
  6.503603862677809E-002 -3.964424687098558E-002 -0.391898298297427     
  6.057856107812076E-002 -3.850377417336122E-002 -0.407645601196672     
  5.636080767509588E-002 -3.736914404653564E-002 -0.419813618212499     
  5.237588258684633E-002 -3.623316124696991E-002 -0.433670954310756     
  4.861410553994727E-002 -3.509722737101816E-002 -0.443300232149206     
  4.506419764092662E-002 -3.397080608324016E-002 -0.453948577114487     
  4.171874950925059E-002 -3.284883862407187E-002 -0.460936875764117     
  3.856790851486247E-002 -3.173650925395256E-002 -0.468082975094331     
  3.560346516272939E-002 -3.063303656780824E-002 -0.471858310419637     
  3.281757752056591E-002 -2.953898224397961E-002 -0.475584671117409     
  3.020058692334526E-002 -2.845835883391527E-002 -0.475623003648366     
  2.774746245235360E-002 -2.738664697764612E-002 -0.476114269341384     
  2.544607444234526E-002 -2.633330383948955E-002 -0.472111823936991     
  2.329535049163844E-002 -2.528815401523145E-002 -0.469352018080686     
  2.128592513596894E-002 -2.425446633946177E-002 -0.461813658805200     
  1.940874743989363E-002 -2.324054043858789E-002 -0.455063723987696     
  1.766335891244597E-002 -2.223383174114062E-002 -0.444954468207122     
  1.603176836942877E-002 -2.125649773259790E-002 -0.433797321103067     
  1.452243875938164E-002 -2.028562863836164E-002 -0.421491767363236     
  1.311916283017667E-002 -1.933635596839932E-002 -0.406622428806679     
  1.181952386836871E-002 -1.840781632522546E-002 -0.391419480160517     
  1.062806782822701E-002 -1.748513233492494E-002 -0.374370343186575     
  9.514649837480404E-003 -1.660112649992002E-002 -0.355592643412799     
  8.499029381182965E-003 -1.572832721528210E-002 -0.336890674035961     
  7.579991635020211E-003 -1.486138387836461E-002 -0.315881219087847     
  6.717937280030006E-003 -1.403936822746698E-002 -0.294391992982804     
  5.940354364939227E-003 -1.323182896156102E-002 -0.272254697712214     
  5.249809497187674E-003 -1.243113450084882E-002 -0.249023591638117     
  4.606505349093348E-003 -1.166981336097379E-002 -0.225016167023618     
  4.019084760469083E-003 -1.093876117669639E-002 -0.200757647862319     
  3.510512539861677E-003 -1.021691714003041E-002 -0.175786246850447     
  3.057634082064498E-003 -9.517637515266138E-003 -0.150516253385607     
  2.631117457770227E-003 -8.859062615407042E-003 -0.124688883426808     
  2.251275171854528E-003 -8.226930114444621E-003 -9.887296140933532E-002
  1.938279788374575E-003 -7.607223007985909E-003 -7.270938196131427E-002
  1.666444256633093E-003 -7.011216243201864E-003 -4.674463738636492E-002
  1.410520706634499E-003 -6.450096929293438E-003 -2.023473883162152E-002
  1.169595613052854E-003 -5.921862137244775E-003  5.965973374637334E-003
  9.714139556434853E-004 -5.414313495089066E-003  3.260772310381332E-002
  8.250585825617662E-004 -4.922097709573018E-003  5.828516347692836E-002
  6.988865456272197E-004 -4.454648652672559E-003  8.417827255511168E-002
  5.801392403548267E-004 -4.014707147346485E-003  0.109915814769832     
  4.683858810181629E-004 -3.600677195095761E-003  0.135882890554217     
  3.632199696889105E-004 -3.211052780183306E-003  0.161539706847559     
  2.743133056950509E-004 -2.842623994983526E-003  0.187340160581595     
  2.210749553935853E-004 -2.490532946816359E-003  0.212526276069144     
  1.913459007185647E-004 -2.155618528247178E-003  0.237100967236206     
  1.633742378795988E-004 -1.840502111041751E-003  0.261600642804866     
  1.370570834159368E-004 -1.544024655503801E-003  0.286220170530175     
  1.122974612960403E-004 -1.265093672432821E-003  0.310469644437860     
  8.900397712352515E-005 -1.002679552866129E-003  0.334951209314649     
  6.709050874131872E-005 -7.558120825648265E-004  0.359018877177306     
  4.647591259843153E-005 -5.235771340711596E-004  0.383318591298914     
  2.708374524285073E-005 -3.051135291669230E-004  0.407231115724992     
  8.841999307285242E-006 -9.961006461039270E-005  0.431248031404023     
  8.841999307285242E-006  9.961006461028181E-005  0.455075877192057     
  2.708374524285073E-005  3.051135291667098E-004  0.478405775080961     
  4.647591259843153E-005  5.235771340709393E-004  0.502814925424418     
  6.709050874131872E-005  7.558120825646010E-004  0.528169934017088     
  8.900397712352515E-005  1.002679552865986E-003  0.554186111743648     
  1.122974612960403E-004  1.265093672432764E-003  0.581475824833855     
  1.370570834159368E-004  1.544024655503732E-003  0.609532702640414     
  1.633742378795988E-004  1.840502111041621E-003  0.639022075044333     
  1.913459007184537E-004  2.155618528247007E-003  0.669521927129360     
  2.210749553934743E-004  2.490532946816264E-003  0.701375970785541     
  2.743133056950509E-004  2.842623994983483E-003  0.734410140361368     
  3.632199696889105E-004  3.211052780183224E-003  0.766866959604267     
  4.683858810181629E-004  3.600677195095709E-003  0.800222885269781     
  5.801392403548267E-004  4.014707147346560E-003  0.835531950507977     
  6.988865456272197E-004  4.454648652672678E-003  0.872206366563072     
  8.250585825617662E-004  4.922097709573131E-003  0.910911986826952     
  9.714139556435963E-004  5.414313495089258E-003  0.950842360145864     
  1.169595613053076E-003  5.921862137244993E-003  0.991521736615797     
  1.410520706634721E-003  6.450096929293682E-003   1.03003192712995     
  1.666444256633204E-003  7.011216243202129E-003   1.07239844118858     
  1.938279788374575E-003  7.607223007986173E-003   1.11576170147462     
  2.251275171854639E-003  8.226930114444923E-003   1.16162523535526     
  2.631117457770449E-003  8.859062615407375E-003   1.20511583903746     
  3.057634082064720E-003  9.517637515266467E-003   1.24858420773541     
  3.510512539861899E-003  1.021691714003073E-002   1.29461591307937     
  4.019084760469305E-003  1.093876117669672E-002   1.34274801591153     
  4.606505349093681E-003  1.166981336097417E-002   1.38694676198986     
  5.249809497188118E-003  1.243113450084921E-002   1.43148906037589     
  5.940354364939671E-003  1.323182896156143E-002   1.47809094630897     
  6.717937280030450E-003  1.403936822746736E-002   1.52519847941112     
  7.579991635020655E-003  1.486138387836498E-002   1.56506400726481     
  8.499029381183409E-003  1.572832721528245E-002   1.60971651535609     
  9.514649837480849E-003  1.660112649992034E-002   1.65420360123253     
  1.062806782822745E-002  1.748513233492523E-002   1.68970092623716     
  1.181952386836915E-002  1.840781632522574E-002   1.73031231679841     
  1.311916283017700E-002  1.933635596839959E-002   1.76801872367897     
  1.452243875938186E-002  2.028562863836187E-002   1.79860645474257     
  1.603176836942910E-002  2.125649773259813E-002   1.83407886473983     
  1.766335891244641E-002  2.223383174114088E-002   1.86026684347937     
  1.940874743989407E-002  2.324054043858812E-002   1.88655030237900     
  2.128592513596939E-002  2.425446633946199E-002   1.91199944623976     
  2.329535049163889E-002  2.528815401523170E-002   1.92738931951601     
  2.544607444234570E-002  2.633330383948980E-002   1.94887821927360     
  2.774746245235415E-002  2.738664697764639E-002   1.95541882345447     
  3.020058692334593E-002  2.845835883391554E-002   1.96848787211696     
  3.281757752056658E-002  2.953898224397986E-002   1.96944951153452     
  3.560346516273005E-002  3.063303656780848E-002   1.97298959318197     
  3.856790851486314E-002  3.173650925395279E-002   1.96726703420427     
  4.171874950925125E-002  3.284883862407208E-002   1.96217245518851     
  4.506419764092739E-002  3.397080608324039E-002   1.94849794032861     
  4.861410553994816E-002  3.509722737101842E-002   1.93607307828820     
  5.237588258684733E-002  3.623316124697021E-002   1.91365804042443     
  5.636080767509699E-002  3.736914404653596E-002   1.89513064874927     
  6.057856107812187E-002  3.850377417336152E-002   1.86393762316516     
  6.503603862677920E-002  3.964424687098586E-002   1.83816265502195     
  6.974632251942359E-002  4.077646030434276E-002   1.80404737804201     
  7.471505784356791E-002  4.191565216614354E-002   1.77027862659214     
  7.995619932694975E-002  4.304174403757209E-002   1.73559396672484     
  8.547868265721803E-002  4.415662563251363E-002   1.69509420159220     
  9.128993515794637E-002  4.526959883528348E-002   1.65718786243402     
  9.740302246356347E-002  4.636046448358921E-002   1.61620715050914     
  0.103825710313919       4.743559307191365E-002   1.57333240669865     
  0.110566120219506       4.849957833915118E-002   1.53172975581599     
  0.117635874536505       4.953175995552680E-002   1.48938135463743     
  0.125042648529724       5.053348438269425E-002   1.44455523631148     
  0.132792572598138       5.151527099780649E-002   1.40211082757749     
  0.140894531792399       5.246270433945228E-002   1.36002937611689     
  0.149356008845023       5.336402775436895E-002   1.31718246051095     
  0.158181839537791       5.422373560443786E-002   1.27457978966118     
  0.167376450190074       5.504393444449639E-002   1.23396723989711     
  0.176944048773140       5.581915391915356E-002   1.19420833381522     
  0.186888097128891       5.653653269590281E-002   1.15588828257822     
  0.197210195764654       5.718975405655896E-002   1.11675691550418     
  0.207909927033707       5.778299083409888E-002   1.07938281542482     
  0.218985981513274       5.831432783585012E-002   1.04330490007596     
  0.230435657346584       5.877950174230485E-002   1.00859499547248     
  0.242254590418356       5.917462021453186E-002  0.975000162168486     
  0.254436687765425       5.949619235958120E-002  0.942678436926718     
  0.266974071532951       5.974115934648094E-002  0.911512296957742     
  0.279857050150593       5.990444954595026E-002  0.881366189986868     
  0.293074027759714       5.998350817985563E-002  0.851528603795863     
  0.306611527360011       5.997985096032882E-002  0.822803452159625     
  0.320454271140275       5.989341791193618E-002  0.795161881634713     
  0.334585154514929       5.972353106721202E-002  0.768442834033167     
  0.348985278939860       5.947006398655311E-002  0.742634571776276     
  0.363634020900936       5.913344174779415E-002  0.717620869965783     
  0.378509122421684       5.871463415791503E-002  0.693403940339394     
  0.393586802890286       5.821514210420214E-002  0.669892658986307     
  0.408841891539183       5.763697717396130E-002  0.647093854228080     
  0.424247979436620       5.698263487182694E-002  0.624927243762268     
  0.439777589382368       5.625506194609606E-002  0.603396619638966     
  0.455402361654785       5.545761849489542E-002  0.582413364314613     
  0.471093253148799       5.459403565457532E-002  0.562012307594648     
  0.486820747089365       5.366836977267417E-002  0.542217045407128     
  0.502555070216155       5.268495403348840E-002  0.523022408535093     
  0.518266414124258       5.164834853448182E-002  0.504408978030568     
  0.533925157321323       5.056328980674243E-002  0.486326596468453     
  0.549502084529179       4.943464073421546E-002  0.468763092802229     
  0.564968599819313       4.826734175769493E-002  0.451665348592508     
  0.580296930324369       4.706636415496942E-002  0.435013835816726     
  0.595460317506297       4.583666607350841E-002  0.418755841536081     
  0.610433193276423       4.458315186273303E-002  0.402863039756328     
  0.625191338641413       4.331063511566605E-002  0.387283173846446     
  0.639712022977310       4.202380569099910E-002  0.371980509958795     
  0.653974122495652       4.072720085239055E-002  0.356903785459091     
  0.667958216944586       3.942518053748860E-002  0.342012288165040     
  0.681646664067583       3.812190665922729E-002  0.327258094153139     
  0.695023651807426       3.682132624975208E-002  0.312595006853549     
  0.708075228679924       3.552715818510210E-002  0.297989091164889     
  0.720789313138662       3.424288317751254E-002  0.283348264803645     
  0.733155517081824       3.297015436139052E-002  0.268674174108640     
  0.745165431436645       3.171185038487738E-002  0.253503516227294     
  0.756812605590841       3.047225173673885E-002  0.238371127249483     
  0.768092166110165       2.925391921276525E-002  0.223057727197563     
  0.779000884847344       2.805910063978216E-002  0.207607186407804     
  0.789537101723151       2.688979892317177E-002  0.191948215555509     
  0.799700455259615       2.574622884337426E-002  0.176085723441278     
  0.809492049394795       2.462921101698028E-002  0.159638918561602     
  0.818914520771601       2.354162889368867E-002  0.142975410683294     
  0.827971583017265       2.248531546583579E-002  0.126177927875070     
  0.836667790252267       2.146004270692930E-002  0.109181623991257     
  0.845008605117867       2.046510145424194E-002  9.182008424241306E-002
  0.853000640736538       1.950219720676798E-002  7.410830775212718E-002
  0.860651278709357       1.857306609199058E-002  5.646235708276670E-002
  0.867968048991340       1.767527645861659E-002  3.876867997931277E-002
  0.874959361825580       1.680904248481432E-002  2.055996774462998E-002
  0.881634354807105       1.597666973363673E-002  2.649424523555099E-003
  0.888001926144580       1.517548130265273E-002 -1.509550749126731E-002
  0.894071612625422       1.440553140223034E-002 -3.323216936396900E-002
  0.899853259637224       1.366754916491456E-002 -5.070540622520348E-002
  0.905356539043864       1.295968439299011E-002 -6.823155468648912E-002
  0.910591518904828       1.228247798053446E-002 -8.540812958309019E-002
  0.915568017057548       1.163428261837529E-002 -0.102043670691338     
  0.920296001506857       1.101473943138043E-002 -0.118603646470447     
  0.924785335229137       1.042319342430861E-002 -0.134282956975035     
  0.929045729434507       9.858610535367525E-003 -0.149796839098706     
  0.933086820659711       9.320470120943211E-003 -0.164393843786422     
  0.936918012072208       8.807758307222070E-003 -0.178611031294412     
  0.940548532638631       8.319645947101609E-003 -0.191920622961266     
  0.943987401243019       7.855348486410615E-003 -0.204721729842751     
  0.947243363824028       7.413828030933243E-003 -0.216573964477111     
  0.950324929075314       6.994133435052048E-003 -0.227861309192973     
  0.953240403573190       6.595771835954800E-003 -0.238227897945058     
  0.955997710370830       6.217413840325344E-003 -0.247846709261012     
  0.958604645181736       5.858830942331399E-003 -0.256747468160642     
  0.961068558213989       5.518593757245211E-003 -0.264646927867267     
  0.963396661946771       5.196322023475506E-003 -0.272085641393879     
  0.965595797706437       4.891000631062511E-003 -0.278364282401454     
  0.967672524401832       4.601598941976731E-003 -0.284296810951762     
  0.969633266134775       4.328118765340781E-003 -0.289162578426036     
  0.971483973629758       4.069132613147574E-003 -0.293560757601251     
  0.973230431824571       3.823950261951115E-003 -0.297107021904192     
  0.974878255807106       3.592549695914026E-003 -0.300235026795431     
  0.976432621979565       3.373612231558908E-003 -0.302435596432381     
  0.977898557719228       3.166534808728841E-003 -0.304447661674193     
  0.979280925188389       2.971262202179325E-003 -0.305566810305770     
  0.980584210328237       2.786736062434180E-003 -0.306490304048193     
  0.981812729093726       2.612298116371144E-003 -0.306687878568503     
  0.982970652698722       2.447811032849902E-003 -0.306770723745057     
  0.984061878782685       2.292691610910997E-003 -0.306145375049605     
  0.985090076270553       2.146169626638764E-003 -0.305512498842595     
  0.986058776549837       2.007870996242638E-003 -0.304273030992656     
  0.986971348521762       1.877585647353850E-003 -0.303093727798213     
  0.987830936170728       1.754773418841784E-003 -0.301354467314839     
  0.988640507745155       1.638854165885759E-003 -0.299767314342607     
  0.989402909161397       1.529527323952571E-003 -0.297706302406113     
  0.990120843598400       1.426576958120972E-003 -0.295851065544362     
  0.990796845563837       1.329639625047739E-003 -0.293581456921835     
  0.991433288916791       1.238211753831686E-003 -0.291573464420228     
  0.992032440159447       1.151973027089460E-003 -0.289229555128934     
  0.992596464885566       1.070785363111486E-003 -0.287194802105672     
  0.993127386684681       9.943626485936540E-004 -0.284864437630324     
  0.993627115299514       9.224242087523592E-004 -0.282888989370423     
  0.994097440802925       8.546137313531353E-004 -0.280665752365797     
  0.994540067843590       7.906977726001834E-004 -0.278828547538803     
  0.994956618372159       7.305472983713144E-004 -0.276793717241912     
  0.995348608774152       6.739433404936558E-004 -0.275144884728692     
  0.995717469545086       6.206793334299079E-004 -0.273348265774169     
  0.996064545310490       5.705287757016100E-004 -0.271933613299014     
  0.996391104685072       5.232824611466228E-004 -0.270410478217673     
  0.996698352306458       4.788022252602527E-004 -0.269258563989037     
  0.996987423131748       4.369534440110160E-004 -0.268027634158548     
  0.997259382938520       3.975818247865938E-004 -0.267143648784838     
  0.997515236117858       3.605419618972581E-004 -0.266207090427492     
  0.997755927276181       3.256843802970459E-004 -0.265584667916672     
  0.997982345559864       2.928625964649020E-004 -0.264928745053179     
  0.998195333020307       2.619692394465794E-004 -0.264547834153933     
  0.998395683636583       2.329088285444983E-004 -0.264146143212363     
  0.998584142577042       2.055732787484207E-004 -0.263972692621149     
  0.998761411599955       1.798608015831094E-004 -0.263786619849232     
  0.998928151520886       1.556755472221381E-004 -0.263779601409095     
  0.999084982597171       1.329138319584505E-004 -0.263762304547940     
  0.999232490696409       1.114911082995802E-004 -0.263874967944603     
  0.999371229373062       9.134159109742271E-005 -0.263975680029537     
  0.999501717822152       7.239028412906411E-005 -0.264161490157552     
  0.999624444703074       5.456621763239993E-005 -0.264324745971074     
  0.999739869675705       3.780065359310569E-005 -0.264554657704334     
  0.999848425210164       2.202786431357840E-005 -0.264704611602477     
  0.999950519027277       7.190906577634323E-006 -0.265067065733880     
