 variables=iter,pressure,tk,tw
 zone t="error", f=point
       1,  0.000000,  0.000000,  0.000000
      11, -0.124944,  0.010074, -0.001091
      21, -0.212184,  0.076292,  0.011459
      31, -0.240440,  0.239152,  0.023173
      41, -0.252822,  0.469563,  0.028486
      51, -0.258780,  0.600266,  0.025533
      61, -0.270614,  0.697167,  0.016063
      71, -0.284401,  0.774655,  0.002065
      81, -0.290282,  0.837762, -0.015191
      91, -0.284384,  0.889865, -0.034175
     101, -0.271113,  0.933981, -0.053449
     111, -0.259548,  0.972839, -0.072142
     121, -0.253662,  1.008666, -0.089923
     131, -0.250377,  1.042923, -0.106688
     141, -0.249519,  1.076257, -0.122238
     151, -0.253895,  1.108644, -0.136122
     161, -0.264005,  1.139707, -0.147917
     171, -0.277838,  1.169020, -0.157791
     181, -0.292081,  1.196341, -0.166817
     191, -0.304613,  1.221544, -0.176863
     201, -0.316014,  1.244490, -0.189338
     211, -0.327888,  1.264937, -0.203666
     221, -0.340394,  1.282526, -0.218206
     231, -0.351784,  1.296923, -0.231253
     241, -0.360285,  1.308135, -0.241826
     251, -0.365849,  1.316793, -0.249797
     261, -0.369796,  1.324141, -0.255416
     271, -0.373401,  1.331581, -0.259013
     281, -0.377205,  1.340113, -0.260953
     291, -0.381363,  1.350038, -0.261623
     301, -0.386061,  1.360968, -0.261298
     311, -0.391433,  1.372200, -0.260330
     321, -0.397323,  1.383108, -0.259145
     331, -0.403342,  1.393421, -0.258087
     341, -0.409131,  1.403292, -0.257344
     351, -0.414519,  1.413141, -0.256999
     361, -0.419489,  1.423349, -0.256977
     371, -0.424071,  1.434063, -0.257140
     381, -0.428361,  1.445189, -0.257363
     391, -0.432569,  1.456517, -0.257592
     401, -0.436929,  1.467995, -0.257634
     411, -0.441545,  1.479703, -0.257375
     421, -0.446400,  1.491789, -0.256703
     431, -0.451464,  1.504359, -0.255545
     441, -0.456750,  1.517398, -0.253966
     451, -0.462281,  1.530774, -0.252144
     461, -0.468040,  1.544297, -0.250310
     471, -0.473879,  1.557790, -0.248678
     481, -0.479360,  1.571114, -0.247415
     491, -0.483749,  1.584213, -0.246621
     501, -0.486574,  1.597076, -0.246330
     511, -0.488592,  1.609705, -0.246524
     521, -0.491806,  1.622129, -0.247125
     531, -0.497605,  1.634400, -0.248009
     541, -0.505154,  1.646565, -0.249042
     551, -0.512463,  1.658639, -0.250123
     561, -0.518513,  1.670593, -0.251186
     571, -0.523699,  1.682378, -0.252199
     581, -0.528764,  1.693952, -0.253173
     591, -0.533946,  1.705285, -0.254191
     601, -0.538984,  1.716366, -0.255400
     611, -0.543571,  1.727213, -0.256879
     621, -0.547659,  1.737861, -0.258681
     631, -0.551526,  1.748362, -0.260830
     641, -0.555611,  1.758769, -0.263294
     651, -0.560249,  1.769140, -0.265963
     661, -0.565542,  1.779544, -0.268647
     671, -0.571418,  1.790043, -0.271099
     681, -0.577711,  1.800663, -0.273098
     691, -0.584167,  1.811334, -0.274568
     701, -0.590521,  1.821844, -0.275737
     711, -0.596687,  1.831838, -0.277203
     721, -0.602867,  1.840923, -0.279803
     731, -0.609325,  1.848857, -0.284255
     741, -0.616079,  1.855706, -0.290778
     751, -0.622880,  1.861860, -0.298955
     761, -0.629444,  1.867903, -0.307986
     771, -0.635632,  1.874424, -0.317053
     781, -0.641477,  1.881879, -0.325579
     791, -0.647103,  1.890536, -0.333285
     801, -0.652641,  1.900439, -0.340144
     811, -0.658183,  1.911435, -0.346324
     821, -0.663762,  1.923250, -0.352107
     831, -0.669374,  1.935597, -0.357801
     841, -0.674989,  1.948264, -0.363667
     851, -0.680567,  1.961140, -0.369881
     861, -0.686053,  1.974204, -0.376521
     871, -0.691382,  1.987497, -0.383575
     881, -0.696507,  2.001090, -0.390979
     891, -0.701424,  2.015053, -0.398645
     901, -0.706191,  2.029436, -0.406501
     911, -0.710907,  2.044251, -0.414507
     921, -0.715687,  2.059484, -0.422654
     931, -0.720635,  2.075101, -0.430945
     941, -0.725830,  2.091060, -0.439418
     951, -0.731288,  2.107320, -0.448118
     961, -0.736945,  2.123863, -0.457037
     971, -0.742683,  2.140670, -0.466159
     981, -0.748389,  2.157710, -0.475477
     991, -0.753995,  2.174967, -0.484929
    1001, -0.759464,  2.192429, -0.494455
    1011, -0.764735,  2.210055, -0.504047
    1021, -0.769717,  2.227819, -0.513681
    1031, -0.774313,  2.245701, -0.523349
    1041, -0.778473,  2.263639, -0.533124
    1051, -0.782261,  2.281608, -0.543032
    1061, -0.785916,  2.299566, -0.553146
    1071, -0.789875,  2.317498, -0.563543
    1081, -0.794599,  2.335457, -0.574191
    1091, -0.800241,  2.353489, -0.585090
    1101, -0.806415,  2.371648, -0.596235
    1111, -0.812389,  2.390018, -0.607565
    1121, -0.817592,  2.408652, -0.619034
    1131, -0.821933,  2.427070, -0.630854
    1141, -0.825652,  2.445614, -0.642738
    1151, -0.828950,  2.464383, -0.654588
    1161, -0.831787,  2.483476, -0.666311
    1171, -0.833970,  2.502942, -0.677886
    1181, -0.835413,  2.522825, -0.689274
    1191, -0.836415,  2.543161, -0.700439
    1201, -0.837687,  2.563983, -0.711365
    1211, -0.840058,  2.585303, -0.722012
    1221, -0.844020,  2.607124, -0.732330
    1231, -0.849463,  2.629410, -0.742289
    1241, -0.855762,  2.652020, -0.751879
    1251, -0.862133,  2.675088, -0.760973
    1261, -0.867984,  2.698610, -0.769506
    1271, -0.873051,  2.722579, -0.777459
    1281, -0.877331,  2.746979, -0.784859
    1291, -0.880933,  2.771660, -0.791890
    1301, -0.883984,  2.796644, -0.798771
    1311, -0.886608,  2.822005, -0.805497
    1321, -0.888950,  2.847700, -0.812246
    1331, -0.891215,  2.873676, -0.819150
    1341, -0.893675,  2.899862, -0.826268
    1351, -0.896591,  2.926167, -0.833570
    1361, -0.900090,  2.952579, -0.840903
    1371, -0.904048,  2.979041, -0.848073
    1381, -0.908089,  3.005422, -0.854891
    1391, -0.911713,  3.031707, -0.861180
    1401, -0.914535,  3.057855, -0.866797
    1411, -0.916502,  3.083865, -0.871677
    1421, -0.917962,  3.109743, -0.875895
    1431, -0.919509,  3.135513, -0.879754
    1441, -0.921639,  3.161219, -0.883450
    1451, -0.924364,  3.186745, -0.887283
    1461, -0.927034,  3.212246, -0.891465
    1471, -0.928578,  3.237767, -0.896151
    1481, -0.928221,  3.263313, -0.901398
    1491, -0.926291,  3.288889, -0.907137
    1501, -0.924491,  3.314473, -0.913237
    1511, -0.925327,  3.339919, -0.919528
    1521, -0.931064,  3.365366, -0.925781
    1531, -0.942760,  3.390816, -0.931856
    1541, -0.959579,  3.416261, -0.937660
    1551, -0.978482,  3.441696, -0.943190
    1561, -0.994587,  3.467124, -0.948527
    1571, -1.002782,  3.492555, -0.953635
    1581, -1.000290,  3.517996, -0.958551
    1591, -0.988228,  3.543452, -0.963278
    1601, -0.970587,  3.568914, -0.967802
    1611, -0.951958,  3.594371, -0.972110
    1621, -0.936061,  3.619802, -0.976208
    1631, -0.925421,  3.645172, -0.980109
    1641, -0.921524,  3.670450, -0.983886
    1651, -0.924974,  3.695592, -0.987634
    1661, -0.935502,  3.720566, -0.991453
    1671, -0.951867,  3.745326, -0.995442
    1681, -0.971740,  3.769838, -0.999686
    1691, -0.991768,  3.794047, -1.004250
    1701, -1.008126,  3.817905, -1.009201
    1711, -1.017645,  3.841281, -1.014609
    1721, -1.018923,  3.864073, -1.020547
    1731, -1.012601,  3.886223, -1.026990
    1741, -1.000682,  3.907700, -1.033903
    1751, -0.985605,  3.928463, -1.041065
    1761, -0.969613,  3.948447, -1.048337
    1771, -0.954451,  3.967682, -1.055632
    1781, -0.941285,  3.986112, -1.062984
    1791, -0.930783,  4.003866, -1.070533
    1801, -0.923334,  4.020961, -1.078582
    1811, -0.919259,  4.037511, -1.087216
    1821, -0.918829,  4.053622, -1.096724
    1831, -0.922012,  4.069235, -1.107157
    1841, -0.928081,  4.084121, -1.118392
    1851, -0.935385,  4.098073, -1.130061
    1861, -0.941626,  4.111313, -1.141642
    1871, -0.944693,  4.124194, -1.152700
    1881, -0.943590,  4.136939, -1.162714
    1891, -0.938712,  4.149694, -1.171239
    1901, -0.931327,  4.162540, -1.177948
    1911, -0.922842,  4.175518, -1.182657
    1921, -0.914434,  4.188638, -1.185309
    1931, -0.907029,  4.201874, -1.185808
    1941, -0.901318,  4.215168, -1.184493
    1951, -0.897660,  4.228468, -1.181549
    1961, -0.895940,  4.241743, -1.177532
    1971, -0.895564,  4.255021, -1.172646
    1981, -0.895660,  4.268252, -1.167500
    1991, -0.895392,  4.281439, -1.161939
    2001, -0.894155,  4.294503, -1.155834
    2011, -0.891547,  4.307349, -1.148840
    2021, -0.887229,  4.319863, -1.140309
    2031, -0.880949,  4.331978, -1.129454
    2041, -0.872784,  4.343634, -1.116241
    2051, -0.863401,  4.354849, -1.100239
    2061, -0.854022,  4.365656, -1.081947
    2071, -0.846080,  4.376041, -1.062258
    2081, -0.840768,  4.385939, -1.042857
    2091, -0.838728,  4.395224, -1.027457
    2101, -0.839921,  4.403706, -1.017440
    2111, -0.843615,  4.411159, -1.016109
    2121, -0.848451,  4.417363, -1.023015
    2131, -0.852631,  4.421995, -1.038379
    2141, -0.854302,  4.424828, -1.061512
    2151, -0.852154,  4.425540, -1.091802
    2161, -0.846000,  4.423781, -1.123120
    2171, -0.836941,  4.419320, -1.151368
    2181, -0.826960,  4.412341, -1.174499
    2191, -0.818182,  4.403333, -1.194408
    2201, -0.812229,  4.393458, -1.213445
    2211, -0.809863,  4.383826, -1.236795
    2221, -0.810944,  4.375410, -1.266524
    2231, -0.814597,  4.368804, -1.299132
    2241, -0.819529,  4.364190, -1.323885
    2251, -0.824416,  4.361670, -1.326116
    2261, -0.828237,  4.360964, -1.299689
    2271, -0.830437,  4.361762, -1.253713
    2281, -0.830869,  4.363477, -1.206589
    2291, -0.829569,  4.365724, -1.162734
    2301, -0.826501,  4.367925, -1.123798
    2311, -0.821476,  4.369658, -1.091269
    2321, -0.814364,  4.370636, -1.064782
    2331, -0.805472,  4.370957, -1.043912
    2341, -0.795854,  4.370808, -1.027282
    2351, -0.787256,  4.370468, -1.013441
    2361, -0.781661,  4.370486, -1.001782
    2371, -0.780722,  4.371258, -0.991512
    2381, -0.785333,  4.373133, -0.983120
    2391, -0.795372,  4.376164, -0.979057
    2401, -0.809605,  4.380268, -0.979255
    2411, -0.825782,  4.385006, -0.986203
    2421, -0.841090,  4.389892, -0.997363
    2431, -0.852856,  4.394480, -1.010609
    2441, -0.859366,  4.398340, -1.025016
    2451, -0.860349,  4.401312, -1.038358
    2461, -0.856696,  4.403328, -1.047247
    2471, -0.849766,  4.404506, -1.047688
    2481, -0.840840,  4.405071, -1.036938
    2491, -0.830920,  4.405250, -1.016594
    2501, -0.820832,  4.405112, -0.990641
    2511, -0.811376,  4.404762, -0.964666
    2521, -0.803419,  4.404090, -0.941669
    2531, -0.797869,  4.402837, -0.926159
    2541, -0.795542,  4.401011, -0.918184
    2551, -0.796986,  4.398582, -0.917893
    2561, -0.802306,  4.395660, -0.925479
    2571, -0.811080,  4.392355, -0.940189
    2581, -0.822345,  4.388811, -0.960473
    2591, -0.834722,  4.385284, -0.986795
    2601, -0.846659,  4.381939, -1.016147
    2611, -0.856781,  4.378923, -1.044459
    2621, -0.864212,  4.376288, -1.070014
    2631, -0.868742,  4.374045, -1.087862
    2641, -0.870752,  4.372265, -1.096347
    2651, -0.870978,  4.370998, -1.097666
    2661, -0.870248,  4.370272, -1.094290
    2671, -0.869307,  4.370012, -1.088273
    2681, -0.868763,  4.370301, -1.081885
    2691, -0.869076,  4.371256, -1.077171
    2701, -0.870525,  4.372868, -1.075478
    2711, -0.873161,  4.375087, -1.077373
    2721, -0.876753,  4.377831, -1.082848
    2731, -0.880782,  4.380990, -1.091384
    2741, -0.884503,  4.384434, -1.102062
    2751, -0.887120,  4.388023, -1.113995
    2761, -0.888069,  4.391559, -1.125638
    2771, -0.887302,  4.394981, -1.135245
    2781, -0.885388,  4.398213, -1.141400
    2791, -0.883387,  4.401180, -1.143491
    2801, -0.882547,  4.403800, -1.142112
    2811, -0.883963,  4.406023, -1.137885
    2821, -0.888328,  4.407814, -1.131492
    2831, -0.895795,  4.408986, -1.123897
    2841, -0.905944,  4.409560, -1.115941
    2851, -0.917822,  4.409586, -1.108277
    2861, -0.930086,  4.409092, -1.101349
    2871, -0.941236,  4.408140, -1.095366
    2881, -0.949959,  4.406803, -1.090563
    2891, -0.955470,  4.405165, -1.087018
    2901, -0.957705,  4.403190, -1.084557
    2911, -0.957251,  4.400905, -1.083117
    2921, -0.955076,  4.398397, -1.082498
    2931, -0.952198,  4.395585, -1.082393
    2941, -0.949476,  4.392318, -1.082411
    2951, -0.947535,  4.388363, -1.082614
    2961, -0.946817,  4.383451, -1.082910
    2971, -0.947655,  4.377297, -1.083324
    2981, -0.950315,  4.369642, -1.083963
    2991, -0.954989,  4.360252, -1.084911
    3001, -0.961736,  4.349069, -1.086156
    3011, -0.970409,  4.336219, -1.087556
    3021, -0.980599,  4.321983, -1.088706
    3031, -0.991623,  4.307014, -1.089680
    3041, -1.002586,  4.292247, -1.090732
    3051, -1.012499,  4.278917, -1.091667
    3061, -1.020459,  4.268246, -1.093009
    3071, -1.025825,  4.261126, -1.094343
    3081, -1.028355,  4.257784, -1.095714
    3091, -1.028241,  4.257657, -1.097104
    3101, -1.026056,  4.259663, -1.098356
    3111, -1.022624,  4.262537, -1.099265
    3121, -1.018869,  4.265357, -1.099708
    3131, -1.015680,  4.267495, -1.099761
    3141, -1.013807,  4.269266, -1.099744
    3151, -1.013813,  4.271483, -1.099948
    3161, -1.016049,  4.275175, -1.100789
    3171, -1.020648,  4.281258, -1.102628
    3181, -1.027520,  4.290203, -1.105675
    3191, -1.036341,  4.302038, -1.109874
    3201, -1.046537,  4.316107, -1.115065
    3211, -1.057300,  4.331394, -1.120861
    3221, -1.067641,  4.346682, -1.126712
    3231, -1.076526,  4.360788, -1.131961
    3241, -1.083078,  4.372571, -1.135803
    3251, -1.086810,  4.381283, -1.137978
    3261, -1.087777,  4.386317, -1.138287
    3271, -1.086568,  4.387146, -1.136523
    3281, -1.084138,  4.383704, -1.132912
    3291, -1.081558,  4.375922, -1.127964
    3301, -1.079777,  4.364555, -1.122004
    3311, -1.079462,  4.351268, -1.115287
    3321, -1.080920,  4.339992, -1.108374
    3331, -1.084089,  4.335390, -1.101443
    3341, -1.088586,  4.340014, -1.094546
    3351, -1.093795,  4.353625, -1.087790
    3361, -1.099011,  4.373512, -1.080705
    3371, -1.103591,  4.395995, -1.073652
    3381, -1.107086,  4.417928, -1.067325
    3391, -1.109307,  4.437182, -1.062460
    3401, -1.110321,  4.454125, -1.060073
    3411, -1.110398,  4.469784, -1.060963
    3421, -1.109955,  4.485149, -1.064845
    3431, -1.109504,  4.500558, -1.071785
    3441, -1.109600,  4.517838, -1.081844
    3451, -1.110772,  4.535870, -1.094289
    3461, -1.113428,  4.554672, -1.107805
    3471, -1.117750,  4.573218, -1.120479
    3481, -1.123623,  4.590472, -1.130711
    3491, -1.130601,  4.606200, -1.137904
    3501, -1.137979,  4.618744, -1.141304
    3511, -1.144934,  4.628580, -1.141188
    3521, -1.150737,  4.636588, -1.138846
    3531, -1.154939,  4.642878, -1.136036
    3541, -1.157456,  4.648821, -1.133384
    3551, -1.158510,  4.655659, -1.131733
    3561, -1.158477,  4.663527, -1.131878
    3571, -1.157733,  4.672493, -1.133921
    3581, -1.156569,  4.682282, -1.137885
    3591, -1.155184,  4.692330, -1.143803
    3601, -1.153719,  4.702015, -1.151484
    3611, -1.152307,  4.710829, -1.160599
    3621, -1.151094,  4.718188, -1.170567
    3631, -1.150233,  4.724076, -1.180503
    3641, -1.149868,  4.728230, -1.189339
    3651, -1.150121,  4.730760, -1.196349
    3661, -1.151088,  4.731970, -1.201278
    3671, -1.152842,  4.731959, -1.204024
    3681, -1.155430,  4.730930, -1.205097
    3691, -1.158852,  4.729001, -1.205299
    3701, -1.163021,  4.726242, -1.205642
    3711, -1.167730,  4.722758, -1.206946
    3721, -1.172626,  4.718625, -1.209482
    3731, -1.177233,  4.713925, -1.213529
    3741, -1.181029,  4.708743, -1.219167
    3751, -1.183568,  4.702984, -1.226190
    3761, -1.184628,  4.695954, -1.233905
    3771, -1.184300,  4.688882, -1.242507
    3781, -1.182989,  4.682203, -1.251913
    3791, -1.181299,  4.675875, -1.261756
    3801, -1.179856,  4.669724, -1.271639
    3811, -1.179135,  4.664018, -1.281175
    3821, -1.179323,  4.658914, -1.290035
    3831, -1.180279,  4.654642, -1.298031
    3841, -1.181577,  4.651427, -1.305064
    3851, -1.182627,  4.649572, -1.311083
    3861, -1.182865,  4.649415, -1.316008
    3871, -1.181934,  4.650737, -1.320069
    3881, -1.179813,  4.653548, -1.323428
    3891, -1.176831,  4.657439, -1.326116
    3901, -1.173579,  4.662087, -1.328460
    3911, -1.170754,  4.667036, -1.330835
    3921, -1.169008,  4.672093, -1.332835
    3931, -1.168824,  4.676792, -1.334239
    3941, -1.170427,  4.680867, -1.334639
    3951, -1.173746,  4.684025, -1.333497
    3961, -1.178401,  4.685860, -1.329941
    3971, -1.183741,  4.686080, -1.322639
    3981, -1.188951,  4.684440, -1.310754
    3991, -1.193226,  4.680623, -1.293023
    4001, -1.195979,  4.674641, -1.269506
    4011, -1.197013,  4.666716, -1.241771
    4021, -1.196570,  4.657178, -1.211555
    4031, -1.195232,  4.646476, -1.179676
    4041, -1.193708,  4.635221, -1.150116
    4051, -1.192589,  4.624033, -1.122924
    4061, -1.192157,  4.613500, -1.100101
    4071, -1.192268,  4.604093, -1.085669
    4081, -1.192355,  4.596086, -1.077267
    4091, -1.191579,  4.589491, -1.075870
    4101, -1.189099,  4.584135, -1.082969
    4111, -1.184424,  4.579633, -1.097835
    4121, -1.177669,  4.575475, -1.120783
    4131, -1.169588,  4.571155, -1.151609
    4141, -1.161360,  4.566312, -1.190149
    4151, -1.154264,  4.560784, -1.235071
    4161, -1.149398,  4.554668, -1.286075
    4171, -1.147515,  4.548280, -1.334529
    4181, -1.148978,  4.542077, -1.367438
    4191, -1.153783,  4.536551, -1.379043
    4201, -1.161617,  4.532122, -1.367329
    4211, -1.171909,  4.528978, -1.339219
    4221, -1.183881,  4.527019, -1.306407
    4231, -1.196573,  4.525856, -1.275085
    4241, -1.208885,  4.525039, -1.252290
    4251, -1.219635,  4.523884, -1.236546
    4261, -1.227659,  4.521729, -1.228763
    4271, -1.231977,  4.518202, -1.228505
    4281, -1.231975,  4.513229, -1.235125
    4291, -1.227561,  4.506720, -1.247574
    4301, -1.219204,  4.498629, -1.264360
    4311, -1.207842,  4.489230, -1.283523
    4321, -1.194692,  4.478909, -1.302701
    4331, -1.181046,  4.468274, -1.319409
    4341, -1.168110,  4.458124, -1.331643
    4351, -1.156914,  4.449364, -1.337811
    4361, -1.148273,  4.442816, -1.337797
    4371, -1.142775,  4.439030, -1.333125
    4381, -1.140788,  4.438103, -1.325942
    4391, -1.142456,  4.439770, -1.318506
    4401, -1.147696,  4.443273, -1.312636
    4411, -1.156192,  4.447619, -1.309497
    4421, -1.167386,  4.451789, -1.309674
    4431, -1.180484,  4.454903, -1.313319
    4441, -1.194470,  4.456138, -1.320273
    4451, -1.208158,  4.454955, -1.330151
    4461, -1.220281,  4.450981, -1.342297
    4471, -1.229625,  4.444087, -1.356193
    4481, -1.235214,  4.434385, -1.370016
    4491, -1.236490,  4.422354, -1.379816
    4501, -1.233437,  4.408996, -1.381585
    4511, -1.226579,  4.395829, -1.370971
    4521, -1.216849,  4.384944, -1.346165
    4531, -1.205384,  4.378725, -1.309214
    4541, -1.193334,  4.378625, -1.264471
    4551, -1.181730,  4.385271, -1.217433
    4561, -1.171421,  4.397684, -1.173289
    4571, -1.163071,  4.413352, -1.134578
    4581, -1.157172,  4.430393, -1.103676
    4591, -1.154065,  4.446186, -1.082090
    4601, -1.153947,  4.459278, -1.070403
    4611, -1.156873,  4.468920, -1.069176
    4621, -1.162749,  4.474252, -1.078765
    4631, -1.171322,  4.474654, -1.099417
    4641, -1.182173,  4.470514, -1.131226
    4651, -1.194718,  4.462085, -1.173537
    4661, -1.208214,  4.449188, -1.223799
    4671, -1.221776,  4.432598, -1.278154
    4681, -1.234416,  4.413283, -1.327494
    4691, -1.245097,  4.391920, -1.360635
    4701, -1.252832,  4.369495, -1.368264
    4711, -1.256812,  4.347923, -1.351390
    4721, -1.256563,  4.329181, -1.323569
    4731, -1.252082,  4.315402, -1.293199
    4741, -1.243890,  4.307758, -1.267070
    4751, -1.232968,  4.305924, -1.248214
    4761, -1.220605,  4.308454, -1.237287
    4771, -1.208211,  4.313855, -1.233694
    4781, -1.197158,  4.320557, -1.236039
    4791, -1.188671,  4.327292, -1.242498
    4801, -1.183771,  4.333248, -1.251159
    4811, -1.183238,  4.338080, -1.260369
    4821, -1.187583,  4.341270, -1.268931
    4831, -1.196991,  4.343346, -1.276470
    4841, -1.211232,  4.344812, -1.283578
    4851, -1.229520,  4.345295, -1.291224
    4861, -1.250331,  4.345651, -1.300398
    4871, -1.271288,  4.346610, -1.311504
    4881, -1.289295,  4.347623, -1.324485
    4891, -1.301190,  4.349327, -1.339102
    4901, -1.304874,  4.352112, -1.353074
    4911, -1.300293,  4.355766, -1.364757
    4921, -1.289434,  4.359695, -1.372796
    4931, -1.275355,  4.364149, -1.377084
    4941, -1.261066,  4.368989, -1.378642
    4951, -1.248888,  4.373992, -1.379132
    4961, -1.240328,  4.378966, -1.380267
    4971, -1.236195,  4.383723, -1.383452
    4981, -1.236768,  4.388205, -1.389353
    4991, -1.241918,  4.392310, -1.398089
    5001, -1.251175,  4.395971, -1.409166
    5011, -1.263740,  4.399175, -1.421571
    5021, -1.278477,  4.401816, -1.433966
    5031, -1.293915,  4.403555, -1.444998
    5041, -1.308316,  4.400820, -1.452968
    5051, -1.319867,  4.399830, -1.458287
    5061, -1.327023,  4.400437, -1.461326
    5071, -1.328895,  4.402134, -1.462741
    5081, -1.325531,  4.404376, -1.463434
    5091, -1.317891,  4.406602, -1.464441
    5101, -1.307549,  4.408554, -1.466550
    5111, -1.296293,  4.409795, -1.470021
    5121, -1.285791,  4.410103, -1.474896
    5131, -1.277398,  4.409535, -1.480798
    5141, -1.272096,  4.408250, -1.487387
    5151, -1.270488,  4.406016, -1.493887
    5161, -1.272814,  4.403453, -1.499731
    5171, -1.278947,  4.400387, -1.504211
    5181, -1.288385,  4.397230, -1.507044
    5191, -1.300222,  4.394000, -1.508238
    5201, -1.313147,  4.390867, -1.508193
    5211, -1.325517,  4.387810, -1.507486
    5221, -1.335580,  4.384860, -1.506730
    5231, -1.341841,  4.381975, -1.506398
    5241, -1.343485,  4.379138, -1.506666
    5251, -1.340634,  4.376457, -1.507400
    5261, -1.334281,  4.373911, -1.508081
    5271, -1.325949,  4.371801, -1.508025
    5281, -1.317266,  4.370103, -1.506475
    5291, -1.309648,  4.369035, -1.502864
    5301, -1.304149,  4.368683, -1.497006
    5311, -1.301422,  4.369036, -1.489200
    5321, -1.301739,  4.370061, -1.480129
    5331, -1.305015,  4.371667, -1.470646
    5341, -1.310836,  4.373694, -1.461925
    5351, -1.318482,  4.376075, -1.455047
    5361, -1.326966,  4.378738, -1.450974
    5371, -1.335142,  4.381573, -1.449899
    5381, -1.341876,  4.384556, -1.451794
    5391, -1.346265,  4.387699, -1.456683
    5401, -1.347849,  4.391032, -1.464248
    5411, -1.346702,  4.394610, -1.474045
    5421, -1.343372,  4.398497, -1.485497
    5431, -1.338693,  4.402654, -1.497781
    5441, -1.333567,  4.407103, -1.509950
    5451, -1.328792,  4.411796, -1.521005
    5461, -1.324974,  4.416522, -1.530029
    5471, -1.322515,  4.421217, -1.536531
    5481, -1.321638,  4.425573, -1.540347
    5491, -1.322427,  4.429252, -1.541736
    5501, -1.324857,  4.431910, -1.541331
    5511, -1.328810,  4.433194, -1.540176
    5521, -1.334072,  4.432897, -1.539326
    5531, -1.340318,  4.430938, -1.540049
    5541, -1.347095,  4.427443, -1.543275
    5551, -1.353825,  4.422673, -1.549333
    5561, -1.359850,  4.417072, -1.557896
    5571, -1.364522,  4.411275, -1.567766
    5581, -1.367344,  4.406033, -1.576836
    5591, -1.368101,  4.401869, -1.582283
    5601, -1.366956,  4.399311, -1.581545
    5611, -1.364429,  4.398626, -1.573002
    5621, -1.361284,  4.399756, -1.557886
    5631, -1.358358,  4.402307, -1.539085
    5641, -1.356386,  4.405643, -1.521098
    5651, -1.355868,  4.409001, -1.507550
    5661, -1.356993,  4.411627, -1.500961
    5671, -1.359602,  4.412895, -1.503005
    5681, -1.363211,  4.412399, -1.514617
    5691, -1.367070,  4.409827, -1.535986
    5701, -1.370307,  4.405166, -1.566143
    5711, -1.372119,  4.398565, -1.602021
    5721, -1.371990,  4.390508, -1.636990
    5731, -1.369860,  4.381488, -1.661700
    5741, -1.366170,  4.372350, -1.668601
    5751, -1.361767,  4.363811, -1.654317
    5761, -1.357704,  4.356558, -1.625557
    5771, -1.355038,  4.351158, -1.591786
    5781, -1.354654,  4.347668, -1.561348
    5791, -1.357160,  4.346020, -1.539544
    5801, -1.362812,  4.345698, -1.527710
    5811, -1.371467,  4.345961, -1.526783
    5821, -1.382540,  4.345740, -1.536836
    5831, -1.394969,  4.344184, -1.557161
    5841, -1.407251,  4.341330, -1.586320
    5851, -1.417585,  4.337368, -1.620076
    5861, -1.424211,  4.332348, -1.651511
    5871, -1.425876,  4.326275, -1.671518
    5881, -1.422247,  4.319156, -1.672726
    5891, -1.414029,  4.311154, -1.655137
    5901, -1.402698,  4.302434, -1.626839
    5911, -1.390052,  4.293194, -1.594206
    5921, -1.377805,  4.283671, -1.564513
    5931, -1.367365,  4.274108, -1.542621
    5941, -1.359766,  4.264780, -1.530465
    5951, -1.355698,  4.255856, -1.528606
    5961, -1.355543,  4.247343, -1.536902
    5971, -1.359408,  4.239306, -1.554749
    5981, -1.367111,  4.231847, -1.580950
    5991, -1.378141,  4.224805, -1.613222
    6001, -1.391585,  4.218183, -1.647467
    6011, -1.406080,  4.212006, -1.678235
    6021, -1.419856,  4.206272, -1.698603
    6031, -1.430963,  4.201094, -1.703667
    6041, -1.437724,  4.196419, -1.695464
    6051, -1.439284,  4.192205, -1.677524
    6061, -1.435925,  4.188300, -1.655421
    6071, -1.428936,  4.184452, -1.634369
    6081, -1.420117,  4.180430, -1.617987
    6091, -1.411228,  4.175902, -1.607664
    6101, -1.403632,  4.170561, -1.604002
    6111, -1.398151,  4.164245, -1.607241
    6121, -1.395095,  4.157101, -1.617247
    6131, -1.394348,  4.149430, -1.633500
    6141, -1.395485,  4.141848, -1.654981
    6151, -1.397907,  4.134971, -1.679744
    6161, -1.400964,  4.129519, -1.704466
    6171, -1.404076,  4.126159, -1.724085
    6181, -1.406817,  4.125173, -1.732471
    6191, -1.408958,  4.126418, -1.725108
    6201, -1.410455,  4.129355, -1.702010
    6211, -1.411405,  4.132889, -1.668086
    6221, -1.411987,  4.136165, -1.628624
    6231, -1.412418,  4.138483, -1.589327
    6241, -1.412931,  4.139237, -1.554103
    6251, -1.413764,  4.138043, -1.525505
    6261, -1.415155,  4.134757, -1.504765
    6271, -1.417323,  4.129470, -1.492457
    6281, -1.420434,  4.122496, -1.488832
    6291, -1.424556,  4.114359, -1.493877
    6301, -1.429600,  4.105754, -1.507236
    6311, -1.435288,  4.097289, -1.528064
    6321, -1.441138,  4.089942, -1.554698
    6331, -1.446506,  4.084457, -1.584255
    6341, -1.450688,  4.081146, -1.612600
    6351, -1.453070,  4.080428, -1.634435
    6361, -1.453288,  4.081817, -1.644971
    6371, -1.451335,  4.084508, -1.645324
    6381, -1.447566,  4.087604, -1.636024
    6391, -1.442597,  4.090291, -1.621808
    6401, -1.437153,  4.091957, -1.607739
    6411, -1.431911,  4.092250, -1.598131
    6421, -1.427394,  4.091074, -1.594198
    6431, -1.423922,  4.088615, -1.596753
    6441, -1.421624,  4.085155, -1.605630
    6451, -1.420474,  4.081209, -1.619843
    6461, -1.420365,  4.077172, -1.637619
    6471, -1.421183,  4.073272, -1.656471
    6481, -1.422878,  4.069769, -1.673505
    6491, -1.425510,  4.066881, -1.686033
    6501, -1.429252,  4.064746, -1.692429
    6511, -1.434357,  4.063014, -1.692630
    6521, -1.441079,  4.061694, -1.687685
    6531, -1.449563,  4.060836, -1.679261
    6541, -1.459716,  4.060454, -1.669398
    6551, -1.471076,  4.060778, -1.660312
    6561, -1.482702,  4.062229, -1.653300
    6571, -1.493156,  4.065267, -1.649187
    6581, -1.500662,  4.070104, -1.648491
    6591, -1.503525,  4.076895, -1.651515
    6601, -1.500706,  4.085553, -1.658392
    6611, -1.492296,  4.095586, -1.669022
    6621, -1.479548,  4.106494, -1.682941
    6631, -1.464458,  4.117507, -1.699092
    6641, -1.449194,  4.127785, -1.716960
    6651, -1.435666,  4.136529, -1.733196
    6661, -1.425339,  4.143024, -1.744827
    6671, -1.419220,  4.146606, -1.749585
    6681, -1.417920,  4.147144, -1.748882
    6691, -1.421708,  4.145472, -1.745492
    6701, -1.430539,  4.142738, -1.738497
    6711, -1.444017,  4.140110, -1.730903
    6721, -1.461308,  4.138676, -1.725015
    6731, -1.481006,  4.139369, -1.722058
    6741, -1.501028,  4.142907, -1.722004
    6751, -1.518685,  4.149521, -1.723650
    6761, -1.531129,  4.158838, -1.724910
    6771, -1.536208,  4.169959, -1.723413
    6781, -1.533365,  4.181727, -1.717403
    6791, -1.523888,  4.192929, -1.706703
    6801, -1.510298,  4.202160, -1.693324
    6811, -1.495382,  4.208597, -1.676974
    6821, -1.481484,  4.211868, -1.661037
    6831, -1.470228,  4.211856, -1.648267
    6841, -1.462538,  4.209095, -1.640503
    6851, -1.458771,  4.204673, -1.638679
    6861, -1.458836,  4.200304, -1.642982
    6871, -1.462300,  4.198027, -1.652736
    6881, -1.468451,  4.200188, -1.666373
    6891, -1.476370,  4.208535, -1.681384
    6901, -1.485009,  4.223332, -1.694398
    6911, -1.493313,  4.243560, -1.701985
    6921, -1.500365,  4.266673, -1.701764
    6931, -1.505531,  4.290472, -1.695172
    6941, -1.508553,  4.312732, -1.682911
    6951, -1.509559,  4.331624, -1.668756
    6961, -1.508983,  4.345902, -1.655294
    6971, -1.507432,  4.354736, -1.644879
    6981, -1.505544,  4.357892, -1.639413
    6991, -1.503882,  4.355546, -1.639937
    7001, -1.502882,  4.348223, -1.646712
    7011, -1.502820,  4.337070, -1.659279
    7021, -1.503821,  4.323760, -1.676269
    7031, -1.505865,  4.311038, -1.695430
    7041, -1.508809,  4.301734, -1.713161
    7051, -1.512401,  4.298884, -1.725520
    7061, -1.516301,  4.304064, -1.729154
    7071, -1.520111,  4.316827, -1.723239
    7081, -1.523412,  4.334929, -1.709535
    7091, -1.525814,  4.355343, -1.690463
    7101, -1.527013,  4.375299, -1.669957
    7111, -1.526850,  4.392632, -1.650717