 variables=iter,cl,cd,cm,clim,cdim,cmim,clip,cdip,cmip,cljm,cdjm,cmjm,cljp,cdjp,cmjp
 zone t ="coefhist", f=point
       1  1.171655E-01  2.519007E-02 -5.964382E-02  0.000000E+00  0.000000E+00  0.000000E+00  0.000000E+00  0.000000E+00  0.000000E+00  1.171655E-01  2.519007E-02 -5.964382E-02  0.000000E+00  0.000000E+00  0.000000E+00
      11  1.020166E+00  2.269951E-01 -5.276335E-01  0.000000E+00  0.000000E+00  0.000000E+00  0.000000E+00  0.000000E+00  0.000000E+00  1.020166E+00  2.269951E-01 -5.276335E-01  0.000000E+00  0.000000E+00  0.000000E+00
      21  1.287476E+00  3.072220E-01 -6.680844E-01  0.000000E+00  0.000000E+00  0.000000E+00  0.000000E+00  0.000000E+00  0.000000E+00  1.287476E+00  3.072220E-01 -6.680844E-01  0.000000E+00  0.000000E+00  0.000000E+00
      31  1.153916E+00  3.017041E-01 -5.890258E-01  0.000000E+00  0.000000E+00  0.000000E+00  0.000000E+00  0.000000E+00  0.000000E+00  1.153916E+00  3.017041E-01 -5.890258E-01  0.000000E+00  0.000000E+00  0.000000E+00
      41  9.518622E-01  2.684195E-01 -4.679486E-01  0.000000E+00  0.000000E+00  0.000000E+00  0.000000E+00  0.000000E+00  0.000000E+00  9.518622E-01  2.684195E-01 -4.679486E-01  0.000000E+00  0.000000E+00  0.000000E+00
      51  8.143437E-01  2.354219E-01 -3.801958E-01  0.000000E+00  0.000000E+00  0.000000E+00  0.000000E+00  0.000000E+00  0.000000E+00  8.143437E-01  2.354219E-01 -3.801958E-01  0.000000E+00  0.000000E+00  0.000000E+00
      61  7.293701E-01  2.073840E-01 -3.204064E-01  0.000000E+00  0.000000E+00  0.000000E+00  0.000000E+00  0.000000E+00  0.000000E+00  7.293701E-01  2.073840E-01 -3.204064E-01  0.000000E+00  0.000000E+00  0.000000E+00
      71  6.592996E-01  1.829175E-01 -2.685111E-01  0.000000E+00  0.000000E+00  0.000000E+00  0.000000E+00  0.000000E+00  0.000000E+00  6.592996E-01  1.829175E-01 -2.685111E-01  0.000000E+00  0.000000E+00  0.000000E+00
      81  5.890750E-01  1.613697E-01 -2.175781E-01  0.000000E+00  0.000000E+00  0.000000E+00  0.000000E+00  0.000000E+00  0.000000E+00  5.890750E-01  1.613697E-01 -2.175781E-01  0.000000E+00  0.000000E+00  0.000000E+00
      91  5.204150E-01  1.424442E-01 -1.698845E-01  0.000000E+00  0.000000E+00  0.000000E+00  0.000000E+00  0.000000E+00  0.000000E+00  5.204150E-01  1.424442E-01 -1.698845E-01  0.000000E+00  0.000000E+00  0.000000E+00
     101  4.573708E-01  1.251677E-01 -1.280104E-01  0.000000E+00  0.000000E+00  0.000000E+00  0.000000E+00  0.000000E+00  0.000000E+00  4.573708E-01  1.251677E-01 -1.280104E-01  0.000000E+00  0.000000E+00  0.000000E+00
     111  4.011568E-01  1.081271E-01 -9.209539E-02  0.000000E+00  0.000000E+00  0.000000E+00  0.000000E+00  0.000000E+00  0.000000E+00  4.011568E-01  1.081271E-01 -9.209539E-02  0.000000E+00  0.000000E+00  0.000000E+00
     121  3.514481E-01  9.019307E-02 -6.124636E-02  0.000000E+00  0.000000E+00  0.000000E+00  0.000000E+00  0.000000E+00  0.000000E+00  3.514481E-01  9.019307E-02 -6.124636E-02  0.000000E+00  0.000000E+00  0.000000E+00
     131  3.081107E-01  7.091544E-02 -3.495568E-02  0.000000E+00  0.000000E+00  0.000000E+00  0.000000E+00  0.000000E+00  0.000000E+00  3.081107E-01  7.091544E-02 -3.495568E-02  0.000000E+00  0.000000E+00  0.000000E+00
     141  2.713259E-01  5.049013E-02 -1.323239E-02  0.000000E+00  0.000000E+00  0.000000E+00  0.000000E+00  0.000000E+00  0.000000E+00  2.713259E-01  5.049013E-02 -1.323239E-02  0.000000E+00  0.000000E+00  0.000000E+00
     151  2.408374E-01  2.951723E-02  3.933819E-03  0.000000E+00  0.000000E+00  0.000000E+00  0.000000E+00  0.000000E+00  0.000000E+00  2.408374E-01  2.951723E-02  3.933819E-03  0.000000E+00  0.000000E+00  0.000000E+00
     161  2.154034E-01  8.740087E-03  1.697627E-02  0.000000E+00  0.000000E+00  0.000000E+00  0.000000E+00  0.000000E+00  0.000000E+00  2.154034E-01  8.740087E-03  1.697627E-02  0.000000E+00  0.000000E+00  0.000000E+00
     171  1.929599E-01 -1.114397E-02  2.672939E-02  0.000000E+00  0.000000E+00  0.000000E+00  0.000000E+00  0.000000E+00  0.000000E+00  1.929599E-01 -1.114397E-02  2.672939E-02  0.000000E+00  0.000000E+00  0.000000E+00
     181  1.714554E-01 -2.955159E-02  3.404380E-02  0.000000E+00  0.000000E+00  0.000000E+00  0.000000E+00  0.000000E+00  0.000000E+00  1.714554E-01 -2.955159E-02  3.404380E-02  0.000000E+00  0.000000E+00  0.000000E+00
     191  1.499125E-01 -4.595962E-02  3.926893E-02  0.000000E+00  0.000000E+00  0.000000E+00  0.000000E+00  0.000000E+00  0.000000E+00  1.499125E-01 -4.595962E-02  3.926893E-02  0.000000E+00  0.000000E+00  0.000000E+00
     201  1.290037E-01 -5.980739E-02  4.198275E-02  0.000000E+00  0.000000E+00  0.000000E+00  0.000000E+00  0.000000E+00  0.000000E+00  1.290037E-01 -5.980739E-02  4.198275E-02  0.000000E+00  0.000000E+00  0.000000E+00
     211  1.106529E-01 -7.047489E-02  4.128975E-02  0.000000E+00  0.000000E+00  0.000000E+00  0.000000E+00  0.000000E+00  0.000000E+00  1.106529E-01 -7.047489E-02  4.128975E-02  0.000000E+00  0.000000E+00  0.000000E+00
     221  9.689300E-02 -7.739422E-02  3.658091E-02  0.000000E+00  0.000000E+00  0.000000E+00  0.000000E+00  0.000000E+00  0.000000E+00  9.689300E-02 -7.739422E-02  3.658091E-02  0.000000E+00  0.000000E+00  0.000000E+00
     231  8.881180E-02 -8.023402E-02  2.819430E-02  0.000000E+00  0.000000E+00  0.000000E+00  0.000000E+00  0.000000E+00  0.000000E+00  8.881180E-02 -8.023402E-02  2.819430E-02  0.000000E+00  0.000000E+00  0.000000E+00
     241  8.631410E-02 -7.903252E-02  1.744566E-02  0.000000E+00  0.000000E+00  0.000000E+00  0.000000E+00  0.000000E+00  0.000000E+00  8.631410E-02 -7.903252E-02  1.744566E-02  0.000000E+00  0.000000E+00  0.000000E+00
     251  8.870681E-02 -7.419604E-02  6.021353E-03  0.000000E+00  0.000000E+00  0.000000E+00  0.000000E+00  0.000000E+00  0.000000E+00  8.870681E-02 -7.419604E-02  6.021353E-03  0.000000E+00  0.000000E+00  0.000000E+00
     261  9.545535E-02 -6.637545E-02 -4.770143E-03  0.000000E+00  0.000000E+00  0.000000E+00  0.000000E+00  0.000000E+00  0.000000E+00  9.545535E-02 -6.637545E-02 -4.770143E-03  0.000000E+00  0.000000E+00  0.000000E+00
     271  1.064563E-01 -5.629764E-02 -1.436488E-02  0.000000E+00  0.000000E+00  0.000000E+00  0.000000E+00  0.000000E+00  0.000000E+00  1.064563E-01 -5.629764E-02 -1.436488E-02  0.000000E+00  0.000000E+00  0.000000E+00
     281  1.216972E-01 -4.463337E-02 -2.279457E-02  0.000000E+00  0.000000E+00  0.000000E+00  0.000000E+00  0.000000E+00  0.000000E+00  1.216972E-01 -4.463337E-02 -2.279457E-02  0.000000E+00  0.000000E+00  0.000000E+00
     291  1.407306E-01 -3.194522E-02 -3.030913E-02  0.000000E+00  0.000000E+00  0.000000E+00  0.000000E+00  0.000000E+00  0.000000E+00  1.407306E-01 -3.194522E-02 -3.030913E-02  0.000000E+00  0.000000E+00  0.000000E+00
     301  1.625354E-01 -1.870746E-02 -3.715471E-02  0.000000E+00  0.000000E+00  0.000000E+00  0.000000E+00  0.000000E+00  0.000000E+00  1.625354E-01 -1.870746E-02 -3.715471E-02  0.000000E+00  0.000000E+00  0.000000E+00
     311  1.858973E-01 -5.358050E-03 -4.360460E-02  0.000000E+00  0.000000E+00  0.000000E+00  0.000000E+00  0.000000E+00  0.000000E+00  1.858973E-01 -5.358050E-03 -4.360460E-02  0.000000E+00  0.000000E+00  0.000000E+00
     321  2.099225E-01  7.659134E-03 -5.004034E-02  0.000000E+00  0.000000E+00  0.000000E+00  0.000000E+00  0.000000E+00  0.000000E+00  2.099225E-01  7.659134E-03 -5.004034E-02  0.000000E+00  0.000000E+00  0.000000E+00
     331  2.342352E-01  1.988120E-02 -5.688527E-02  0.000000E+00  0.000000E+00  0.000000E+00  0.000000E+00  0.000000E+00  0.000000E+00  2.342352E-01  1.988120E-02 -5.688527E-02  0.000000E+00  0.000000E+00  0.000000E+00
     341  2.588036E-01  3.084173E-02 -6.442934E-02  0.000000E+00  0.000000E+00  0.000000E+00  0.000000E+00  0.000000E+00  0.000000E+00  2.588036E-01  3.084173E-02 -6.442934E-02  0.000000E+00  0.000000E+00  0.000000E+00
     351  2.836718E-01  4.011249E-02 -7.272084E-02  0.000000E+00  0.000000E+00  0.000000E+00  0.000000E+00  0.000000E+00  0.000000E+00  2.836718E-01  4.011249E-02 -7.272084E-02  0.000000E+00  0.000000E+00  0.000000E+00
     361  3.088189E-01  4.737483E-02 -8.160728E-02  0.000000E+00  0.000000E+00  0.000000E+00  0.000000E+00  0.000000E+00  0.000000E+00  3.088189E-01  4.737483E-02 -8.160728E-02  0.000000E+00  0.000000E+00  0.000000E+00
     371  3.341148E-01  5.251445E-02 -9.085644E-02  0.000000E+00  0.000000E+00  0.000000E+00  0.000000E+00  0.000000E+00  0.000000E+00  3.341148E-01  5.251445E-02 -9.085644E-02  0.000000E+00  0.000000E+00  0.000000E+00
     381  3.592471E-01  5.570232E-02 -1.002506E-01  0.000000E+00  0.000000E+00  0.000000E+00  0.000000E+00  0.000000E+00  0.000000E+00  3.592471E-01  5.570232E-02 -1.002506E-01  0.000000E+00  0.000000E+00  0.000000E+00
     391  3.836119E-01  5.740126E-02 -1.096098E-01  0.000000E+00  0.000000E+00  0.000000E+00  0.000000E+00  0.000000E+00  0.000000E+00  3.836119E-01  5.740126E-02 -1.096098E-01  0.000000E+00  0.000000E+00  0.000000E+00
     401  4.062854E-01  5.825400E-02 -1.187617E-01  0.000000E+00  0.000000E+00  0.000000E+00  0.000000E+00  0.000000E+00  0.000000E+00  4.062854E-01  5.825400E-02 -1.187617E-01  0.000000E+00  0.000000E+00  0.000000E+00
     411  4.261668E-01  5.887421E-02 -1.274992E-01  0.000000E+00  0.000000E+00  0.000000E+00  0.000000E+00  0.000000E+00  0.000000E+00  4.261668E-01  5.887421E-02 -1.274992E-01  0.000000E+00  0.000000E+00  0.000000E+00
     421  4.422695E-01  5.963182E-02 -1.355545E-01  0.000000E+00  0.000000E+00  0.000000E+00  0.000000E+00  0.000000E+00  0.000000E+00  4.422695E-01  5.963182E-02 -1.355545E-01  0.000000E+00  0.000000E+00  0.000000E+00
     431  4.540601E-01  6.052453E-02 -1.426077E-01  0.000000E+00  0.000000E+00  0.000000E+00  0.000000E+00  0.000000E+00  0.000000E+00  4.540601E-01  6.052453E-02 -1.426077E-01  0.000000E+00  0.000000E+00  0.000000E+00
     441  4.617446E-01  6.118873E-02 -1.483336E-01  0.000000E+00  0.000000E+00  0.000000E+00  0.000000E+00  0.000000E+00  0.000000E+00  4.617446E-01  6.118873E-02 -1.483336E-01  0.000000E+00  0.000000E+00  0.000000E+00
     451  4.663691E-01  6.106051E-02 -1.524813E-01  0.000000E+00  0.000000E+00  0.000000E+00  0.000000E+00  0.000000E+00  0.000000E+00  4.663691E-01  6.106051E-02 -1.524813E-01  0.000000E+00  0.000000E+00  0.000000E+00
     461  4.695620E-01  5.963420E-02 -1.549648E-01  0.000000E+00  0.000000E+00  0.000000E+00  0.000000E+00  0.000000E+00  0.000000E+00  4.695620E-01  5.963420E-02 -1.549648E-01  0.000000E+00  0.000000E+00  0.000000E+00
     471  4.728352E-01  5.669569E-02 -1.559113E-01  0.000000E+00  0.000000E+00  0.000000E+00  0.000000E+00  0.000000E+00  0.000000E+00  4.728352E-01  5.669569E-02 -1.559113E-01  0.000000E+00  0.000000E+00  0.000000E+00
     481  4.767226E-01  5.240008E-02 -1.556015E-01  0.000000E+00  0.000000E+00  0.000000E+00  0.000000E+00  0.000000E+00  0.000000E+00  4.767226E-01  5.240008E-02 -1.556015E-01  0.000000E+00  0.000000E+00  0.000000E+00
     491  4.804012E-01  4.716565E-02 -1.543161E-01  0.000000E+00  0.000000E+00  0.000000E+00  0.000000E+00  0.000000E+00  0.000000E+00  4.804012E-01  4.716565E-02 -1.543161E-01  0.000000E+00  0.000000E+00  0.000000E+00
     501  4.822625E-01  4.149562E-02 -1.522132E-01  0.000000E+00  0.000000E+00  0.000000E+00  0.000000E+00  0.000000E+00  0.000000E+00  4.822625E-01  4.149562E-02 -1.522132E-01  0.000000E+00  0.000000E+00  0.000000E+00
     511  4.810838E-01  3.586199E-02 -1.493506E-01  0.000000E+00  0.000000E+00  0.000000E+00  0.000000E+00  0.000000E+00  0.000000E+00  4.810838E-01  3.586199E-02 -1.493506E-01  0.000000E+00  0.000000E+00  0.000000E+00
     521  4.768222E-01  3.067055E-02 -1.458058E-01  0.000000E+00  0.000000E+00  0.000000E+00  0.000000E+00  0.000000E+00  0.000000E+00  4.768222E-01  3.067055E-02 -1.458058E-01  0.000000E+00  0.000000E+00  0.000000E+00
     531  4.704397E-01  2.623491E-02 -1.417396E-01  0.000000E+00  0.000000E+00  0.000000E+00  0.000000E+00  0.000000E+00  0.000000E+00  4.704397E-01  2.623491E-02 -1.417396E-01  0.000000E+00  0.000000E+00  0.000000E+00
     541  4.631342E-01  2.272785E-02 -1.373491E-01  0.000000E+00  0.000000E+00  0.000000E+00  0.000000E+00  0.000000E+00  0.000000E+00  4.631342E-01  2.272785E-02 -1.373491E-01  0.000000E+00  0.000000E+00  0.000000E+00
     551  4.557594E-01  2.015655E-02 -1.328046E-01  0.000000E+00  0.000000E+00  0.000000E+00  0.000000E+00  0.000000E+00  0.000000E+00  4.557594E-01  2.015655E-02 -1.328046E-01  0.000000E+00  0.000000E+00  0.000000E+00
     561  4.487580E-01  1.840075E-02 -1.282511E-01  0.000000E+00  0.000000E+00  0.000000E+00  0.000000E+00  0.000000E+00  0.000000E+00  4.487580E-01  1.840075E-02 -1.282511E-01  0.000000E+00  0.000000E+00  0.000000E+00
     571  4.423565E-01  1.728787E-02 -1.238451E-01  0.000000E+00  0.000000E+00  0.000000E+00  0.000000E+00  0.000000E+00  0.000000E+00  4.423565E-01  1.728787E-02 -1.238451E-01  0.000000E+00  0.000000E+00  0.000000E+00
     581  4.366841E-01  1.665287E-02 -1.197581E-01  0.000000E+00  0.000000E+00  0.000000E+00  0.000000E+00  0.000000E+00  0.000000E+00  4.366841E-01  1.665287E-02 -1.197581E-01  0.000000E+00  0.000000E+00  0.000000E+00
     591  4.317595E-01  1.636127E-02 -1.161366E-01  0.000000E+00  0.000000E+00  0.000000E+00  0.000000E+00  0.000000E+00  0.000000E+00  4.317595E-01  1.636127E-02 -1.161366E-01  0.000000E+00  0.000000E+00  0.000000E+00
     601  4.274711E-01  1.630944E-02 -1.130667E-01  0.000000E+00  0.000000E+00  0.000000E+00  0.000000E+00  0.000000E+00  0.000000E+00  4.274711E-01  1.630944E-02 -1.130667E-01  0.000000E+00  0.000000E+00  0.000000E+00
     611  4.236306E-01  1.642029E-02 -1.105711E-01  0.000000E+00  0.000000E+00  0.000000E+00  0.000000E+00  0.000000E+00  0.000000E+00  4.236306E-01  1.642029E-02 -1.105711E-01  0.000000E+00  0.000000E+00  0.000000E+00
     621  4.200674E-01  1.664005E-02 -1.086319E-01  0.000000E+00  0.000000E+00  0.000000E+00  0.000000E+00  0.000000E+00  0.000000E+00  4.200674E-01  1.664005E-02 -1.086319E-01  0.000000E+00  0.000000E+00  0.000000E+00
     631  4.166978E-01  1.693461E-02 -1.072152E-01  0.000000E+00  0.000000E+00  0.000000E+00  0.000000E+00  0.000000E+00  0.000000E+00  4.166978E-01  1.693461E-02 -1.072152E-01  0.000000E+00  0.000000E+00  0.000000E+00
     641  4.135453E-01  1.728548E-02 -1.062866E-01  0.000000E+00  0.000000E+00  0.000000E+00  0.000000E+00  0.000000E+00  0.000000E+00  4.135453E-01  1.728548E-02 -1.062866E-01  0.000000E+00  0.000000E+00  0.000000E+00
     651  4.107186E-01  1.768667E-02 -1.058151E-01  0.000000E+00  0.000000E+00  0.000000E+00  0.000000E+00  0.000000E+00  0.000000E+00  4.107186E-01  1.768667E-02 -1.058151E-01  0.000000E+00  0.000000E+00  0.000000E+00
     661  4.083693E-01  1.814296E-02 -1.057694E-01  0.000000E+00  0.000000E+00  0.000000E+00  0.000000E+00  0.000000E+00  0.000000E+00  4.083693E-01  1.814296E-02 -1.057694E-01  0.000000E+00  0.000000E+00  0.000000E+00
     671  4.066429E-01  1.866752E-02 -1.061081E-01  0.000000E+00  0.000000E+00  0.000000E+00  0.000000E+00  0.000000E+00  0.000000E+00  4.066429E-01  1.866752E-02 -1.061081E-01  0.000000E+00  0.000000E+00  0.000000E+00
     681  4.056385E-01  1.927793E-02 -1.067684E-01  0.000000E+00  0.000000E+00  0.000000E+00  0.000000E+00  0.000000E+00  0.000000E+00  4.056385E-01  1.927793E-02 -1.067684E-01  0.000000E+00  0.000000E+00  0.000000E+00
     691  4.053893E-01  1.999094E-02 -1.076612E-01  0.000000E+00  0.000000E+00  0.000000E+00  0.000000E+00  0.000000E+00  0.000000E+00  4.053893E-01  1.999094E-02 -1.076612E-01  0.000000E+00  0.000000E+00  0.000000E+00
     701  4.058690E-01  2.081774E-02 -1.086780E-01  0.000000E+00  0.000000E+00  0.000000E+00  0.000000E+00  0.000000E+00  0.000000E+00  4.058690E-01  2.081774E-02 -1.086780E-01  0.000000E+00  0.000000E+00  0.000000E+00
     711  4.070161E-01  2.176108E-02 -1.097111E-01  0.000000E+00  0.000000E+00  0.000000E+00  0.000000E+00  0.000000E+00  0.000000E+00  4.070161E-01  2.176108E-02 -1.097111E-01  0.000000E+00  0.000000E+00  0.000000E+00
     721  4.087630E-01  2.281456E-02 -1.106784E-01  0.000000E+00  0.000000E+00  0.000000E+00  0.000000E+00  0.000000E+00  0.000000E+00  4.087630E-01  2.281456E-02 -1.106784E-01  0.000000E+00  0.000000E+00  0.000000E+00
     731  4.110560E-01  2.396312E-02 -1.115408E-01  0.000000E+00  0.000000E+00  0.000000E+00  0.000000E+00  0.000000E+00  0.000000E+00  4.110560E-01  2.396312E-02 -1.115408E-01  0.000000E+00  0.000000E+00  0.000000E+00
     741  4.138593E-01  2.518367E-02 -1.123064E-01  0.000000E+00  0.000000E+00  0.000000E+00  0.000000E+00  0.000000E+00  0.000000E+00  4.138593E-01  2.518367E-02 -1.123064E-01  0.000000E+00  0.000000E+00  0.000000E+00
     751  4.171466E-01  2.644512E-02 -1.130192E-01  0.000000E+00  0.000000E+00  0.000000E+00  0.000000E+00  0.000000E+00  0.000000E+00  4.171466E-01  2.644512E-02 -1.130192E-01  0.000000E+00  0.000000E+00  0.000000E+00
     761  4.208864E-01  2.770803E-02 -1.137407E-01  0.000000E+00  0.000000E+00  0.000000E+00  0.000000E+00  0.000000E+00  0.000000E+00  4.208864E-01  2.770803E-02 -1.137407E-01  0.000000E+00  0.000000E+00  0.000000E+00
     771  4.250309E-01  2.892514E-02 -1.145316E-01  0.000000E+00  0.000000E+00  0.000000E+00  0.000000E+00  0.000000E+00  0.000000E+00  4.250309E-01  2.892514E-02 -1.145316E-01  0.000000E+00  0.000000E+00  0.000000E+00
     781  4.295110E-01  3.004388E-02 -1.154394E-01  0.000000E+00  0.000000E+00  0.000000E+00  0.000000E+00  0.000000E+00  0.000000E+00  4.295110E-01  3.004388E-02 -1.154394E-01  0.000000E+00  0.000000E+00  0.000000E+00
     791  4.342378E-01  3.101173E-02 -1.164911E-01  0.000000E+00  0.000000E+00  0.000000E+00  0.000000E+00  0.000000E+00  0.000000E+00  4.342378E-01  3.101173E-02 -1.164911E-01  0.000000E+00  0.000000E+00  0.000000E+00
     801  4.391075E-01  3.178357E-02 -1.176913E-01  0.000000E+00  0.000000E+00  0.000000E+00  0.000000E+00  0.000000E+00  0.000000E+00  4.391075E-01  3.178357E-02 -1.176913E-01  0.000000E+00  0.000000E+00  0.000000E+00
     811  4.440087E-01  3.232944E-02 -1.190237E-01  0.000000E+00  0.000000E+00  0.000000E+00  0.000000E+00  0.000000E+00  0.000000E+00  4.440087E-01  3.232944E-02 -1.190237E-01  0.000000E+00  0.000000E+00  0.000000E+00
     821  4.488273E-01  3.264009E-02 -1.204547E-01  0.000000E+00  0.000000E+00  0.000000E+00  0.000000E+00  0.000000E+00  0.000000E+00  4.488273E-01  3.264009E-02 -1.204547E-01  0.000000E+00  0.000000E+00  0.000000E+00
     831  4.534521E-01  3.272846E-02 -1.219400E-01  0.000000E+00  0.000000E+00  0.000000E+00  0.000000E+00  0.000000E+00  0.000000E+00  4.534521E-01  3.272846E-02 -1.219400E-01  0.000000E+00  0.000000E+00  0.000000E+00
     841  4.577765E-01  3.262600E-02 -1.234301E-01  0.000000E+00  0.000000E+00  0.000000E+00  0.000000E+00  0.000000E+00  0.000000E+00  4.577765E-01  3.262600E-02 -1.234301E-01  0.000000E+00  0.000000E+00  0.000000E+00
     851  4.617026E-01  3.237458E-02 -1.248756E-01  0.000000E+00  0.000000E+00  0.000000E+00  0.000000E+00  0.000000E+00  0.000000E+00  4.617026E-01  3.237458E-02 -1.248756E-01  0.000000E+00  0.000000E+00  0.000000E+00
     861  4.651463E-01  3.201624E-02 -1.262291E-01  0.000000E+00  0.000000E+00  0.000000E+00  0.000000E+00  0.000000E+00  0.000000E+00  4.651463E-01  3.201624E-02 -1.262291E-01  0.000000E+00  0.000000E+00  0.000000E+00
     871  4.680485E-01  3.158429E-02 -1.274462E-01  0.000000E+00  0.000000E+00  0.000000E+00  0.000000E+00  0.000000E+00  0.000000E+00  4.680485E-01  3.158429E-02 -1.274462E-01  0.000000E+00  0.000000E+00  0.000000E+00
     881  4.703890E-01  3.109866E-02 -1.284872E-01  0.000000E+00  0.000000E+00  0.000000E+00  0.000000E+00  0.000000E+00  0.000000E+00  4.703890E-01  3.109866E-02 -1.284872E-01  0.000000E+00  0.000000E+00  0.000000E+00
     891  4.721975E-01  3.056691E-02 -1.293191E-01  0.000000E+00  0.000000E+00  0.000000E+00  0.000000E+00  0.000000E+00  0.000000E+00  4.721975E-01  3.056691E-02 -1.293191E-01  0.000000E+00  0.000000E+00  0.000000E+00
     901  4.735562E-01  2.998986E-02 -1.299202E-01  0.000000E+00  0.000000E+00  0.000000E+00  0.000000E+00  0.000000E+00  0.000000E+00  4.735562E-01  2.998986E-02 -1.299202E-01  0.000000E+00  0.000000E+00  0.000000E+00
     911  4.745858E-01  2.936868E-02 -1.302843E-01  0.000000E+00  0.000000E+00  0.000000E+00  0.000000E+00  0.000000E+00  0.000000E+00  4.745858E-01  2.936868E-02 -1.302843E-01  0.000000E+00  0.000000E+00  0.000000E+00
     921  4.754164E-01  2.871002E-02 -1.304245E-01  0.000000E+00  0.000000E+00  0.000000E+00  0.000000E+00  0.000000E+00  0.000000E+00  4.754164E-01  2.871002E-02 -1.304245E-01  0.000000E+00  0.000000E+00  0.000000E+00
     931  4.761506E-01  2.802678E-02 -1.303717E-01  0.000000E+00  0.000000E+00  0.000000E+00  0.000000E+00  0.000000E+00  0.000000E+00  4.761506E-01  2.802678E-02 -1.303717E-01  0.000000E+00  0.000000E+00  0.000000E+00
     941  4.768343E-01  2.733492E-02 -1.301689E-01  0.000000E+00  0.000000E+00  0.000000E+00  0.000000E+00  0.000000E+00  0.000000E+00  4.768343E-01  2.733492E-02 -1.301689E-01  0.000000E+00  0.000000E+00  0.000000E+00
     951  4.774465E-01  2.664901E-02 -1.298622E-01  0.000000E+00  0.000000E+00  0.000000E+00  0.000000E+00  0.000000E+00  0.000000E+00  4.774465E-01  2.664901E-02 -1.298622E-01  0.000000E+00  0.000000E+00  0.000000E+00
     961  4.779139E-01  2.597965E-02 -1.294895E-01  0.000000E+00  0.000000E+00  0.000000E+00  0.000000E+00  0.000000E+00  0.000000E+00  4.779139E-01  2.597965E-02 -1.294895E-01  0.000000E+00  0.000000E+00  0.000000E+00
     971  4.781410E-01  2.533448E-02 -1.290723E-01  0.000000E+00  0.000000E+00  0.000000E+00  0.000000E+00  0.000000E+00  0.000000E+00  4.781410E-01  2.533448E-02 -1.290723E-01  0.000000E+00  0.000000E+00  0.000000E+00
     981  4.780431E-01  2.472175E-02 -1.286128E-01  0.000000E+00  0.000000E+00  0.000000E+00  0.000000E+00  0.000000E+00  0.000000E+00  4.780431E-01  2.472175E-02 -1.286128E-01  0.000000E+00  0.000000E+00  0.000000E+00
     991  4.775713E-01  2.415376E-02 -1.280963E-01  0.000000E+00  0.000000E+00  0.000000E+00  0.000000E+00  0.000000E+00  0.000000E+00  4.775713E-01  2.415376E-02 -1.280963E-01  0.000000E+00  0.000000E+00  0.000000E+00
    1001  4.767267E-01  2.364793E-02 -1.275010E-01  0.000000E+00  0.000000E+00  0.000000E+00  0.000000E+00  0.000000E+00  0.000000E+00  4.767267E-01  2.364793E-02 -1.275010E-01  0.000000E+00  0.000000E+00  0.000000E+00
    1011  4.755619E-01  2.322476E-02 -1.268098E-01  0.000000E+00  0.000000E+00  0.000000E+00  0.000000E+00  0.000000E+00  0.000000E+00  4.755619E-01  2.322476E-02 -1.268098E-01  0.000000E+00  0.000000E+00  0.000000E+00
    1021  4.741733E-01  2.290358E-02 -1.260217E-01  0.000000E+00  0.000000E+00  0.000000E+00  0.000000E+00  0.000000E+00  0.000000E+00  4.741733E-01  2.290358E-02 -1.260217E-01  0.000000E+00  0.000000E+00  0.000000E+00
    1031  4.726833E-01  2.269787E-02 -1.251571E-01  0.000000E+00  0.000000E+00  0.000000E+00  0.000000E+00  0.000000E+00  0.000000E+00  4.726833E-01  2.269787E-02 -1.251571E-01  0.000000E+00  0.000000E+00  0.000000E+00
    1041  4.712178E-01  2.261170E-02 -1.242565E-01  0.000000E+00  0.000000E+00  0.000000E+00  0.000000E+00  0.000000E+00  0.000000E+00  4.712178E-01  2.261170E-02 -1.242565E-01  0.000000E+00  0.000000E+00  0.000000E+00
    1051  4.698829E-01  2.263841E-02 -1.233722E-01  0.000000E+00  0.000000E+00  0.000000E+00  0.000000E+00  0.000000E+00  0.000000E+00  4.698829E-01  2.263841E-02 -1.233722E-01  0.000000E+00  0.000000E+00  0.000000E+00
    1061  4.687500E-01  2.276167E-02 -1.225572E-01  0.000000E+00  0.000000E+00  0.000000E+00  0.000000E+00  0.000000E+00  0.000000E+00  4.687500E-01  2.276167E-02 -1.225572E-01  0.000000E+00  0.000000E+00  0.000000E+00
    1071  4.678520E-01  2.295862E-02 -1.218559E-01  0.000000E+00  0.000000E+00  0.000000E+00  0.000000E+00  0.000000E+00  0.000000E+00  4.678520E-01  2.295862E-02 -1.218559E-01  0.000000E+00  0.000000E+00  0.000000E+00
    1081  4.671884E-01  2.320387E-02 -1.212971E-01  0.000000E+00  0.000000E+00  0.000000E+00  0.000000E+00  0.000000E+00  0.000000E+00  4.671884E-01  2.320387E-02 -1.212971E-01  0.000000E+00  0.000000E+00  0.000000E+00
    1091  4.667364E-01  2.347336E-02 -1.208926E-01  0.000000E+00  0.000000E+00  0.000000E+00  0.000000E+00  0.000000E+00  0.000000E+00  4.667364E-01  2.347336E-02 -1.208926E-01  0.000000E+00  0.000000E+00  0.000000E+00
    1101  4.664633E-01  2.374717E-02 -1.206381E-01  0.000000E+00  0.000000E+00  0.000000E+00  0.000000E+00  0.000000E+00  0.000000E+00  4.664633E-01  2.374717E-02 -1.206381E-01  0.000000E+00  0.000000E+00  0.000000E+00
    1111  4.663360E-01  2.401092E-02 -1.205165E-01  0.000000E+00  0.000000E+00  0.000000E+00  0.000000E+00  0.000000E+00  0.000000E+00  4.663360E-01  2.401092E-02 -1.205165E-01  0.000000E+00  0.000000E+00  0.000000E+00
    1121  4.663276E-01  2.425577E-02 -1.205025E-01  0.000000E+00  0.000000E+00  0.000000E+00  0.000000E+00  0.000000E+00  0.000000E+00  4.663276E-01  2.425577E-02 -1.205025E-01  0.000000E+00  0.000000E+00  0.000000E+00
    1131  4.664201E-01  2.447749E-02 -1.205671E-01  0.000000E+00  0.000000E+00  0.000000E+00  0.000000E+00  0.000000E+00  0.000000E+00  4.664201E-01  2.447749E-02 -1.205671E-01  0.000000E+00  0.000000E+00  0.000000E+00
    1141  4.666045E-01  2.467502E-02 -1.206814E-01  0.000000E+00  0.000000E+00  0.000000E+00  0.000000E+00  0.000000E+00  0.000000E+00  4.666045E-01  2.467502E-02 -1.206814E-01  0.000000E+00  0.000000E+00  0.000000E+00
    1151  4.668792E-01  2.484902E-02 -1.208201E-01  0.000000E+00  0.000000E+00  0.000000E+00  0.000000E+00  0.000000E+00  0.000000E+00  4.668792E-01  2.484902E-02 -1.208201E-01  0.000000E+00  0.000000E+00  0.000000E+00
    1161  4.672481E-01  2.500078E-02 -1.209646E-01  0.000000E+00  0.000000E+00  0.000000E+00  0.000000E+00  0.000000E+00  0.000000E+00  4.672481E-01  2.500078E-02 -1.209646E-01  0.000000E+00  0.000000E+00  0.000000E+00
    1171  4.677172E-01  2.513153E-02 -1.211040E-01  0.000000E+00  0.000000E+00  0.000000E+00  0.000000E+00  0.000000E+00  0.000000E+00  4.677172E-01  2.513153E-02 -1.211040E-01  0.000000E+00  0.000000E+00  0.000000E+00
    1181  4.682931E-01  2.524217E-02 -1.212357E-01  0.000000E+00  0.000000E+00  0.000000E+00  0.000000E+00  0.000000E+00  0.000000E+00  4.682931E-01  2.524217E-02 -1.212357E-01  0.000000E+00  0.000000E+00  0.000000E+00
    1191  4.689799E-01  2.533316E-02 -1.213637E-01  0.000000E+00  0.000000E+00  0.000000E+00  0.000000E+00  0.000000E+00  0.000000E+00  4.689799E-01  2.533316E-02 -1.213637E-01  0.000000E+00  0.000000E+00  0.000000E+00
    1201  4.697779E-01  2.540458E-02 -1.214966E-01  0.000000E+00  0.000000E+00  0.000000E+00  0.000000E+00  0.000000E+00  0.000000E+00  4.697779E-01  2.540458E-02 -1.214966E-01  0.000000E+00  0.000000E+00  0.000000E+00
    1211  4.706820E-01  2.545600E-02 -1.216439E-01  0.000000E+00  0.000000E+00  0.000000E+00  0.000000E+00  0.000000E+00  0.000000E+00  4.706820E-01  2.545600E-02 -1.216439E-01  0.000000E+00  0.000000E+00  0.000000E+00
    1221  4.716803E-01  2.548639E-02 -1.218136E-01  0.000000E+00  0.000000E+00  0.000000E+00  0.000000E+00  0.000000E+00  0.000000E+00  4.716803E-01  2.548639E-02 -1.218136E-01  0.000000E+00  0.000000E+00  0.000000E+00
    1231  4.727540E-01  2.549404E-02 -1.220092E-01  0.000000E+00  0.000000E+00  0.000000E+00  0.000000E+00  0.000000E+00  0.000000E+00  4.727540E-01  2.549404E-02 -1.220092E-01  0.000000E+00  0.000000E+00  0.000000E+00
    1241  4.738769E-01  2.547656E-02 -1.222291E-01  0.000000E+00  0.000000E+00  0.000000E+00  0.000000E+00  0.000000E+00  0.000000E+00  4.738769E-01  2.547656E-02 -1.222291E-01  0.000000E+00  0.000000E+00  0.000000E+00
    1251  4.750155E-01  2.543102E-02 -1.224653E-01  0.000000E+00  0.000000E+00  0.000000E+00  0.000000E+00  0.000000E+00  0.000000E+00  4.750155E-01  2.543102E-02 -1.224653E-01  0.000000E+00  0.000000E+00  0.000000E+00
    1261  4.761292E-01  2.535438E-02 -1.227046E-01  0.000000E+00  0.000000E+00  0.000000E+00  0.000000E+00  0.000000E+00  0.000000E+00  4.761292E-01  2.535438E-02 -1.227046E-01  0.000000E+00  0.000000E+00  0.000000E+00
    1271  4.771720E-01  2.524401E-02 -1.229291E-01  0.000000E+00  0.000000E+00  0.000000E+00  0.000000E+00  0.000000E+00  0.000000E+00  4.771720E-01  2.524401E-02 -1.229291E-01  0.000000E+00  0.000000E+00  0.000000E+00
    1281  4.780956E-01  2.509839E-02 -1.231186E-01  0.000000E+00  0.000000E+00  0.000000E+00  0.000000E+00  0.000000E+00  0.000000E+00  4.780956E-01  2.509839E-02 -1.231186E-01  0.000000E+00  0.000000E+00  0.000000E+00
    1291  4.788540E-01  2.491779E-02 -1.232537E-01  0.000000E+00  0.000000E+00  0.000000E+00  0.000000E+00  0.000000E+00  0.000000E+00  4.788540E-01  2.491779E-02 -1.232537E-01  0.000000E+00  0.000000E+00  0.000000E+00
    1301  4.794107E-01  2.470473E-02 -1.233186E-01  0.000000E+00  0.000000E+00  0.000000E+00  0.000000E+00  0.000000E+00  0.000000E+00  4.794107E-01  2.470473E-02 -1.233186E-01  0.000000E+00  0.000000E+00  0.000000E+00
    1311  4.797440E-01  2.446422E-02 -1.233044E-01  0.000000E+00  0.000000E+00  0.000000E+00  0.000000E+00  0.000000E+00  0.000000E+00  4.797440E-01  2.446422E-02 -1.233044E-01  0.000000E+00  0.000000E+00  0.000000E+00
    1321  4.798534E-01  2.420358E-02 -1.232114E-01  0.000000E+00  0.000000E+00  0.000000E+00  0.000000E+00  0.000000E+00  0.000000E+00  4.798534E-01  2.420358E-02 -1.232114E-01  0.000000E+00  0.000000E+00  0.000000E+00
    1331  4.797616E-01  2.393210E-02 -1.230500E-01  0.000000E+00  0.000000E+00  0.000000E+00  0.000000E+00  0.000000E+00  0.000000E+00  4.797616E-01  2.393210E-02 -1.230500E-01  0.000000E+00  0.000000E+00  0.000000E+00
    1341  4.795143E-01  2.366041E-02 -1.228404E-01  0.000000E+00  0.000000E+00  0.000000E+00  0.000000E+00  0.000000E+00  0.000000E+00  4.795143E-01  2.366041E-02 -1.228404E-01  0.000000E+00  0.000000E+00  0.000000E+00
    1351  4.791772E-01  2.339998E-02 -1.226109E-01  0.000000E+00  0.000000E+00  0.000000E+00  0.000000E+00  0.000000E+00  0.000000E+00  4.791772E-01  2.339998E-02 -1.226109E-01  0.000000E+00  0.000000E+00  0.000000E+00