 variables = x,y,"-cp"
 zone t="Cp_jmin_000"
  0.999901036689427      -1.438201154477405E-005 -0.108492284821608     
  0.999694849639698      -4.433878394527676E-005 -0.107054021056394     
  0.999471457044767      -7.678516570916535E-005 -0.106689663805320     
  0.999229433009151      -1.119351872218389E-004 -0.105931249377321     
  0.998967231722420      -1.499986690511435E-004 -0.105327278840896     
  0.998683181823514      -1.912078565131687E-004 -0.104650684368147     
  0.998375479381158      -2.358394108184670E-004 -0.103995538918032     
  0.998042172631888      -2.841848128453211E-004 -0.103318671319963     
  0.997681144537264      -3.365111952199675E-004 -0.102633474272587     
  0.997290110610486      -3.931333799421472E-004 -0.101942210244851     
  0.996866609714277      -4.544436015688823E-004 -0.101230135588719     
  0.996407979180273      -5.208395406005970E-004 -0.100500749983273     
  0.995911330769309      -5.926648277141595E-004 -9.976030715851802E-002
  0.995373553322796      -6.703413130624667E-004 -9.899161513570709E-002
  0.994791302447734      -7.544191472102226E-004 -9.820585660400916E-002
  0.994160961879245      -8.454387107432190E-004 -9.738019211982651E-002
  0.993478605833100      -9.438069532774860E-004 -9.654018373207096E-002
  0.992740024637728      -1.050120877354764E-003 -9.565974723272186E-002
  0.991940704001005      -1.165177846065212E-003 -9.473365735263251E-002
  0.991075739240897      -1.289542745202006E-003 -9.377708194257073E-002
  0.990139854226810      -1.423850871937378E-003 -9.277036817530115E-002
  0.989127407965195      -1.569033645803364E-003 -9.170554381113716E-002
  0.988032309338146      -1.725912456346903E-003 -9.059024646230229E-002
  0.986847988777956      -1.895197373064347E-003 -8.941417988749567E-002
  0.985567445047636      -2.078017021053428E-003 -8.816169835929566E-002
  0.984183134935553      -2.275355794470929E-003 -8.684281689999107E-002
  0.982686950651476      -2.488111897379464E-003 -8.544707109149696E-002
  0.981070283856444      -2.717765049792072E-003 -8.394236557940449E-002
  0.979323822809217      -2.965169206971251E-003 -8.238615109384995E-002
  0.977437674783382      -3.231638924822782E-003 -8.068713990946419E-002
  0.975401311643326      -3.518778878205071E-003 -7.892119186891211E-002
  0.973203434186103      -3.827740415357508E-003 -7.702355492053803E-002
  0.970832089848265      -4.160252963783775E-003 -7.500699406984079E-002
  0.968274510352013      -4.517656241893913E-003 -7.290338389599960E-002
  0.965517205518267      -4.901735795903623E-003 -7.061199002738672E-002
  0.962545856985965      -5.314096152677030E-003 -6.827403708847335E-002
  0.959345348602296      -5.756486401209208E-003 -6.573089379197050E-002
  0.955899768014636      -6.230865535969582E-003 -6.309147673221194E-002
  0.952192326065171      -6.738827172269944E-003 -6.033889416581806E-002
  0.948205528126510      -7.282785808824490E-003 -5.737145517961917E-002
  0.943920927438716      -7.864031637407815E-003 -5.438950389681008E-002
  0.939319436050898      -8.484788640032118E-003 -5.117870175293193E-002
  0.934381256447932      -9.147375810369188E-003 -4.788273681510447E-002
  0.929085760411976      -9.852845123685342E-003 -4.450468727479473E-002
  0.923411957576804      -1.060387854510685E-002 -4.096161602604997E-002
  0.917338301331815      -1.140259645894358E-002 -3.730484914092669E-002
  0.910842672091623      -1.224945780384571E-002 -3.364722610802628E-002
  0.903902934488028      -1.314637863285233E-002 -2.983198573517498E-002
  0.896496996320902      -1.409587524212469E-002 -2.598566833427229E-002
  0.888602757596857      -1.509910284169805E-002 -2.204779578026406E-002
  0.880198410926427      -1.615632802232875E-002 -1.808334539873035E-002
  0.871262801958185      -1.726768552580072E-002 -1.414053652810132E-002
  0.861775847922212      -1.843419903075212E-002 -1.015767038243265E-002
  0.851718685983071      -1.965640415779817E-002 -6.177942574511874E-003
  0.841073968747992      -2.093388515101843E-002 -2.240070168050501E-003
  0.829826304610176      -2.226578772895235E-002  1.701818486442352E-003
  0.817962649142221      -2.365078170607101E-002  5.582969761863676E-003
  0.805472711125871      -2.508702431525892E-002  9.404679430765617E-003
  0.792349366039704      -2.657212500253204E-002  1.318582527195389E-002
  0.778589068327765      -2.810311264980000E-002  1.687637699954081E-002
  0.764192252334772      -2.967640636653989E-002  2.049039692866073E-002
  0.749163710505883      -3.128779116418917E-002  2.409013320028608E-002
  0.733512786417905      -3.293094272277818E-002  2.748122174394152E-002
  0.717253865540819      -3.459924250550806E-002  3.079596570306542E-002
  0.700406774779677      -3.628742751082444E-002  3.400720023595349E-002
  0.682996682429761      -3.798917514195270E-002  3.708179023854452E-002
  0.665054153964236      -3.969693207546836E-002  4.017416109681116E-002
  0.646614951929252      -4.139990135340135E-002  4.298980612378323E-002
  0.627720189103518      -4.308704309437720E-002  4.564232906635390E-002
  0.608416437015914      -4.475112151366507E-002  4.813887255974314E-002
  0.588754938035307      -4.638417730094366E-002  5.064981002973479E-002
  0.568790597199374      -4.797059236360566E-002  5.261231601447491E-002
  0.548582355683681      -4.949860753708847E-002  5.444296344241129E-002
  0.528192702380974      -5.096299098463154E-002  5.608584308888753E-002
  0.507685801203611      -5.235007411813461E-002  5.729711096113177E-002
  0.487127298884429      -5.364551210604034E-002  5.797319010304491E-002
  0.466584070280482      -5.484365745587879E-002  5.837964355224212E-002
  0.446122642496232      -5.593656205053190E-002  5.834044252227377E-002
  0.425808112005379      -5.690873480176196E-002  5.735674326414886E-002
  0.405704258511259      -5.775538187230993E-002  5.593928184474284E-002
  0.385872439408809      -5.847730301479206E-002  5.417025243579809E-002
  0.366370107700743      -5.905943927397766E-002  5.091171233168978E-002
  0.347251138959864      -5.949678417017554E-002  4.723820843865623E-002
  0.328565272432459      -5.979681865774525E-002  4.241933839694134E-002
  0.310357084272810      -5.995936260311839E-002  3.712550577967866E-002
  0.292666038436822      -5.997424577553107E-002  2.996286836726170E-002
  0.275526342270472      -5.984333551911108E-002  2.215019649456651E-002
  0.258966719358373      -5.958007639650599E-002  1.305389428403902E-002
  0.243010402247484      -5.918846746271154E-002  2.915827140124172E-003
  0.227675313889136      -5.867348200350751E-002 -8.388276559946117E-003
  0.212974332671116      -5.803948207164759E-002 -2.075034029114375E-002
  0.198915682585232      -5.728881518763976E-002 -3.457645829162237E-002
  0.185502688789305      -5.643128510725968E-002 -4.928558812753225E-002
  0.172734217488895      -5.548008027404536E-002 -6.506327836973069E-002
  0.160605523034368      -5.444353102461935E-002 -8.172650039914453E-002
  0.149108410853820      -5.333022867657388E-002 -9.916853712798446E-002
  0.138231637096210      -5.214893011788994E-002 -0.117277979593965     
  0.127961302815210      -5.090847827795564E-002 -0.135905900031570     
  0.118281233308736      -4.961774151957353E-002 -0.154933213045540     
  0.109173334039380      -4.828557488582750E-002 -0.173958523092486     
  0.100619352473058      -4.691268280442117E-002 -0.193482655472954     
  9.259932167578322E-002 -4.550404986317674E-002 -0.212680232399106     
  8.509082500320453E-002 -4.407374508092853E-002 -0.231686015658958     
  7.807129914897593E-002 -4.263126142393887E-002 -0.250193089844338     
  7.151779012549453E-002 -4.118490260629624E-002 -0.267972980003723     
  6.540868179836479E-002 -3.973604924040557E-002 -0.284989612966228     
  5.972538454240184E-002 -3.827601692707851E-002 -0.301614631288522     
  5.444447767232785E-002 -3.681652512757678E-002 -0.316913266637310     
  4.953923882882172E-002 -3.537963756867354E-002 -0.330744590681169     
  4.499484238040496E-002 -3.394792731793951E-002 -0.344294948030968     
  4.079283231808140E-002 -3.251979480296933E-002 -0.356290247021689     
  3.690382155082184E-002 -3.112647535564832E-002 -0.366077956056581     
  3.331897338690382E-002 -2.974308438615302E-002 -0.376499867793313     
  3.001992853400259E-002 -2.837272662995695E-002 -0.383731199699841     
  2.698146395291323E-002 -2.703744387458767E-002 -0.390667372707569     
  2.419521817029124E-002 -2.572017851393302E-002 -0.396298463022696     
  2.163886985022512E-002 -2.443602799853272E-002 -0.399713315980606     
  1.930380911958252E-002 -2.317528402219218E-002 -0.403525200510637     
  1.717159457934081E-002 -2.194557498080656E-002 -0.404011507973581     
  1.523173633144437E-002 -2.074551827938654E-002 -0.405624987991681     
  1.347124070536088E-002 -1.957452573790441E-002 -0.404015123201065     
  1.187502616326441E-002 -1.844066995672238E-002 -0.402951582604727     
  1.043809851605715E-002 -1.733430489920384E-002 -0.400165803060437     
  9.136461311411770E-003 -1.627385726785402E-002 -0.396102298910018     
  7.977160035893105E-003 -1.524010552122804E-002 -0.392534764715787     
  6.935962262663908E-003 -1.424726689067101E-002 -0.386375331378784     
  6.007649260728942E-003 -1.329584607266419E-002 -0.381010881566633     
  5.197942384246534E-003 -1.236975213659182E-002 -0.374440102220976     
  4.463145226993981E-003 -1.150015319028689E-002 -0.366736462412410     
  3.822031769330381E-003 -1.066772931847954E-002 -0.359351444116932     
  3.279846165163414E-003 -9.860750285176443E-003 -0.351116981347150     
  2.790912267504275E-003 -9.105798252013814E-003 -0.342321650416282     
  2.350526001678399E-003 -8.401803031976705E-003 -0.333027509332365     
  1.991903883693968E-003 -7.724795289140971E-003 -0.323574788535450     
  1.697401034548296E-003 -7.079089817105916E-003 -0.313835653554291     
  1.425328203884413E-003 -6.482562768008258E-003 -0.303640043860783     
  1.174003083752484E-003 -5.931525636110130E-003 -0.292955838392285     
  9.709265006891954E-004 -5.412089117667584E-003 -0.282035039619616     
  8.238867579573039E-004 -4.917756269746139E-003 -0.271226619939455     
  6.995521017549855E-004 -4.457114441382819E-003 -0.260035376342842     
  5.847380853111206E-004 -4.031745199436594E-003 -0.248617013278128     
  4.787230618852334E-004 -3.638974947630218E-003 -0.236842651121341     
  3.808389906723164E-004 -3.276328691885235E-003 -0.224679471490911     
  2.904676175868870E-004 -2.941515890682194E-003 -0.212735113598364     
  2.333762907558157E-004 -2.627730745651859E-003 -0.199955208432616     
  2.071227178881418E-004 -2.333353192432223E-003 -0.188298728476747     
  1.829994274494817E-004 -2.061590841441674E-003 -0.175852087933840     
  1.607319663670115E-004 -1.810735445501646E-003 -0.163333588468100     
  1.401783810204282E-004 -1.579187817730839E-003 -0.150647440403767     
  1.212074545433595E-004 -1.365469726784322E-003 -0.137730270664725     
  1.036979128065108E-004 -1.168214951806617E-003 -0.124593643677693     
  8.753768641556192E-005 -9.861609684275415E-004 -0.111399143968939     
  7.262322518397646E-005 -8.181412259154610E-004 -9.789225812944036E-002
  5.885886169931798E-005 -6.630779773923135E-004 -8.429727793397834E-002
  4.615622076353798E-005 -5.199756268522191E-004 -7.056093214184855E-002
  3.443367165412159E-005 -3.879145585791283E-004 -5.655625698948619E-002
  2.361582031673581E-005 -2.660454164071133E-004 -4.255146532117404E-002
  1.363303875945299E-005 -1.535838020872810E-004 -2.822446901548803E-002
  4.421029079937355E-006 -4.980536380928741E-005 -1.402658396053935E-002
  4.421029079937355E-006  4.980536380925416E-005  6.925091454141885E-004
  1.363303875945299E-005  1.535838020872856E-004  1.461101736341419E-002
  2.361582031673581E-005  2.660454164071646E-004  2.929990652381464E-002
  3.443367165412159E-005  3.879145585791394E-004  4.412195789274276E-002
  4.615622076353798E-005  5.199756268521838E-004  5.950201817482137E-002
  5.885886169942900E-005  6.630779773923243E-004  7.517282891983879E-002
  7.262322518408748E-005  8.181412259154934E-004  9.135067971485000E-002
  8.753768641556192E-005  9.861609684275543E-004  0.108078762900311     
  1.036979128065108E-004  1.168214951806632E-003  0.125216850699143     
  1.212074545433595E-004  1.365469726784401E-003  0.143078022671867     
  1.401783810204282E-004  1.579187817730990E-003  0.161521375521123     
  1.607319663670115E-004  1.810735445501831E-003  0.180639549512039     
  1.829994274494817E-004  2.061590841441825E-003  0.200542827656507     
  2.071227178881418E-004  2.333353192432302E-003  0.221380231040864     
  2.333762907559267E-004  2.627730745651989E-003  0.242490495946850     
  2.904676175869980E-004  2.941515890682324E-003  0.265336834572410     
  3.808389906723164E-004  3.276328691885331E-003  0.285981632729298     
  4.787230618852334E-004  3.638974947630303E-003  0.308841902237914     
  5.847380853111206E-004  4.031745199436690E-003  0.332264849129855     
  6.995521017549855E-004  4.457114441382969E-003  0.356874451840675     
  8.238867579573039E-004  4.917756269746217E-003  0.382747954341489     
  9.709265006891954E-004  5.412089117667598E-003  0.409407394478210     
  1.174003083752484E-003  5.931525636110182E-003  0.437038726124029     
  1.425328203884413E-003  6.482562768008291E-003  0.462915575023034     
  1.697401034548296E-003  7.079089817105910E-003  0.491595658178840     
  1.991903883693968E-003  7.724795289140960E-003  0.520425039621174     
  2.350526001678399E-003  8.401803031976737E-003  0.552159430041604     
  2.790912267504275E-003  9.105798252013898E-003  0.580632934725480     
  3.279846165163414E-003  9.860750285176526E-003  0.611372998103905     
  3.822031769330492E-003  1.066772931847965E-002  0.642707355759297     
  4.463145226994203E-003  1.150015319028706E-002  0.675865089696323     
  5.197942384246756E-003  1.236975213659205E-002  0.705503632354812     
  6.007649260729164E-003  1.329584607266442E-002  0.737968101273353     
  6.935962262664130E-003  1.424726689067121E-002  0.771538934218381     
  7.977160035893327E-003  1.524010552122821E-002  0.800520161718504     
  9.136461311411881E-003  1.627385726785411E-002  0.834581153417184     
  1.043809851605715E-002  1.733430489920386E-002  0.864069885654801     
  1.187502616326441E-002  1.844066995672239E-002  0.894547912712241     
  1.347124070536088E-002  1.957452573790444E-002  0.925433372359448     
  1.523173633144437E-002  2.074551827938657E-002  0.952062801942774     
  1.717159457934081E-002  2.194557498080656E-002  0.982166779097575     
  1.930380911958240E-002  2.317528402219212E-002   1.00557638132601     
  2.163886985022490E-002  2.443602799853265E-002   1.03264643031750     
  2.419521817029113E-002  2.572017851393298E-002   1.05343209973361     
  2.698146395291312E-002  2.703744387458762E-002   1.07542195964578     
  3.001992853400237E-002  2.837272662995684E-002   1.09418257177000     
  3.331897338690348E-002  2.974308438615288E-002   1.10935326590809     
  3.690382155082150E-002  3.112647535564820E-002   1.12563324546223     
  4.079283231808117E-002  3.251979480296922E-002   1.13458211520401     
  4.499484238040474E-002  3.394792731793937E-002   1.14379575866379     
  4.953923882882139E-002  3.537963756867342E-002   1.15017983899471     
  5.444447767232741E-002  3.681652512757666E-002   1.15178840359452     
  5.972538454240139E-002  3.827601692707838E-002   1.15202829219844     
  6.540868179836423E-002  3.973604924040544E-002   1.14959857936401     
  7.151779012549386E-002  4.118490260629609E-002   1.14304634781084     
  7.807129914897515E-002  4.263126142393869E-002   1.13393276302158     
  8.509082500320364E-002  4.407374508092836E-002   1.12210852926401     
  9.259932167578233E-002  4.550404986317659E-002   1.10772523299384     
  0.100619352473057       4.691268280442101E-002   1.09060407856813     
  0.109173334039379       4.828557488582733E-002   1.07110525906072     
  0.118281233308735       4.961774151957337E-002   1.04864749003140     
  0.127961302815209       5.090847827795549E-002   1.02448727724843     
  0.138231637096209       5.214893011788979E-002  0.998455175582591     
  0.149108410853819       5.333022867657373E-002  0.970947510162649     
  0.160605523034367       5.444353102461922E-002  0.942047269147150     
  0.172734217488894       5.548008027404523E-002  0.912135067120518     
  0.185502688789304       5.643128510725957E-002  0.881413790610251     
  0.198915682585230       5.728881518763965E-002  0.850010462294824     
  0.212974332671114       5.803948207164750E-002  0.818457971985014     
  0.227675313889134       5.867348200350744E-002  0.786221467064301     
  0.243010402247482       5.918846746271147E-002  0.754153734281939     
  0.258966719358371       5.958007639650598E-002  0.722241240701170     
  0.275526342270470       5.984333551911108E-002  0.690781626348657     
  0.292666038436820       5.997424577553106E-002  0.659599966105784     
  0.310357084272807       5.995936260311840E-002  0.629384824919716     
  0.328565272432456       5.979681865774529E-002  0.598807527894225     
  0.347251138959861       5.949678417017558E-002  0.569487831574102     
  0.366370107700740       5.905943927397773E-002  0.540594631921037     
  0.385872439408806       5.847730301479220E-002  0.512948163028979     
  0.405704258511256       5.775538187231009E-002  0.485225689734138     
  0.425808112005375       5.690873480176212E-002  0.458686347837745     
  0.446122642496228       5.593656205053207E-002  0.433167991667052     
  0.466584070280478       5.484365745587899E-002  0.408010830249135     
  0.487127298884425       5.364551210604056E-002  0.383774616772782     
  0.507685801203607       5.235007411813486E-002  0.360523809824642     
  0.528192702380970       5.096299098463181E-002  0.337909896749237     
  0.548582355683677       4.949860753708876E-002  0.316057792715806     
  0.568790597199370       4.797059236360596E-002  0.295051851206827     
  0.588754938035303       4.638417730094397E-002  0.274934608831386     
  0.608416437015910       4.475112151366539E-002  0.255341143395198     
  0.627720189103514       4.308704309437753E-002  0.236605930902360     
  0.646614951929248       4.139990135340171E-002  0.218639329432329     
  0.665054153964232       3.969693207546873E-002  0.201397396101535     
  0.682996682429757       3.798917514195309E-002  0.184682260546239     
  0.700406774779673       3.628742751082484E-002  0.168801390221999     
  0.717253865540815       3.459924250550842E-002  0.153533773428666     
  0.733512786417902       3.293094272277854E-002  0.138871819608475     
  0.749163710505879       3.128779116418955E-002  0.124924230217709     
  0.764192252334769       2.967640636654027E-002  0.111424016316086     
  0.778589068327761       2.810311264980035E-002  9.858519449985770E-002
  0.792349366039701       2.657212500253238E-002  8.634121881740509E-002
  0.805472711125868       2.508702431525927E-002  7.459169967604540E-002
  0.817962649142218       2.365078170607138E-002  6.343704391463589E-002
  0.829826304610173       2.226578772895270E-002  5.280007797402497E-002
  0.841073968747989       2.093388515101875E-002  4.263257080844052E-002
  0.851718685983068       1.965640415779848E-002  3.304777585679797E-002
  0.861775847922210       1.843419903075244E-002  2.389512185990172E-002
  0.871262801958183       1.726768552580103E-002  1.522458364292745E-002
  0.880198410926424       1.615632802232904E-002  7.076397100903575E-003
  0.888602757596855       1.509910284169834E-002 -6.821002839161316E-004
  0.896496996320900       1.409587524212496E-002 -7.978061395400360E-003
  0.903902934488026       1.314637863285260E-002 -1.481563154865873E-002
  0.910842672091621       1.224945780384598E-002 -2.129166890349588E-002
  0.917338301331813       1.140259645894383E-002 -2.726802442913900E-002
  0.923411957576802       1.060387854510708E-002 -3.293026634817453E-002
  0.929085760411975       9.852845123685578E-003 -3.822024403927715E-002
  0.934381256447930       9.147375810369410E-003 -4.308428157410393E-002
  0.939319436050896       8.484788640032329E-003 -4.765288961936776E-002
  0.943920927438715       7.864031637408016E-003 -5.190758278086349E-002
  0.948205528126508       7.282785808824687E-003 -5.577903573349108E-002
  0.952192326065169       6.738827172270148E-003 -5.944781163693191E-002
  0.955899768014634       6.230865535969765E-003 -6.276930280279691E-002
  0.959345348602295       5.756486401209352E-003 -6.584982280817897E-002
  0.962545856985963       5.314096152677136E-003 -6.872150298101598E-002
  0.965517205518266       4.901735795903727E-003 -7.129543039185959E-002
  0.968274510352011       4.517656241894034E-003 -7.373006689916606E-002
  0.970832089848264       4.160252963783896E-003 -7.592345731082872E-002
  0.973203434186103       3.827740415357626E-003 -7.795122867375559E-002
  0.975401311643325       3.518778878205195E-003 -7.982469009477189E-002
  0.977437674783382       3.231638924822898E-003 -8.152168071150800E-002
  0.979323822809216       2.965169206971359E-003 -8.310891207845206E-002
  0.981070283856443       2.717765049792180E-003 -8.454775666263536E-002
  0.982686950651475       2.488111897379563E-003 -8.588615742733552E-002
  0.984183134935553       2.275355794471010E-003 -8.711856053740386E-002
  0.985567445047635       2.078017021053502E-003 -8.825537210126333E-002
  0.986847988777955       1.895197373064412E-003 -8.931358519614641E-002
  0.988032309338146       1.725912456346964E-003 -9.029490472934842E-002
  0.989127407965195       1.569033645803426E-003 -9.120744066541731E-002
  0.990139854226809       1.423850871937428E-003 -9.206702377091114E-002
  0.991075739240897       1.289542745202041E-003 -9.286796882561399E-002
  0.991940704001005       1.165177846065241E-003 -9.362231547995625E-002
  0.992740024637728       1.050120877354804E-003 -9.433977261146831E-002
  0.993478605833100       9.438069532775259E-004 -9.501474067409310E-002
  0.994160961879245       8.454387107432533E-004 -9.565926255033519E-002
  0.994791302447733       7.544191472102573E-004 -9.627544703711299E-002
  0.995373553322796       6.703413130624964E-004 -9.686276054847154E-002
  0.995911330769309       5.926648277141797E-004 -9.743470923428665E-002
  0.996407979180273       5.208395406006104E-004 -9.797364201839232E-002
  0.996866609714277       4.544436015688968E-004 -9.850402428869476E-002
  0.997290110610486       3.931333799421647E-004 -9.902797553470499E-002
  0.997681144537264       3.365111952199938E-004 -9.948896164599130E-002
  0.998042172631888       2.841848128453584E-004 -0.100042436054102     
  0.998375479381157       2.358394108185026E-004 -0.100296618716711     
  0.998683181823514       1.912078565131975E-004 -0.100995431406820     
  0.998967231722420       1.499986690511828E-004 -9.880404570631907E-002
  0.999229433009151       1.119351872218831E-004 -0.100287711700398     
  0.999471457044767       7.678516570920785E-005 -0.107153690336098     
  0.999694849639698       4.433878394532627E-005 -0.105470609534935     
  0.999901036689427       1.438201154480178E-005 -0.107472240435203     
