 variables=iter,pressure
 zone t="error", f=point
       1,  0.000000
      11, -0.158984
      21, -0.248800
      31, -0.262883
      41, -0.257320
      51, -0.248136
      61, -0.255393
      71, -0.270808
      81, -0.280884
      91, -0.285190
     101, -0.286119
     111, -0.288017
     121, -0.294629
     131, -0.302188
     141, -0.306888
     151, -0.309770
     161, -0.314650
     171, -0.324217
     181, -0.338529
     191, -0.355879
     201, -0.374045
     211, -0.391380
     221, -0.407180
     231, -0.421159
     241, -0.432987
     251, -0.442492
     261, -0.449847
     271, -0.455485
     281, -0.460060
     291, -0.464387
     301, -0.469102
     311, -0.474335
     321, -0.479846
     331, -0.485376
     341, -0.490789
     351, -0.496193
     361, -0.501839
     371, -0.507398
     381, -0.511942
     391, -0.515969
     401, -0.522270
     411, -0.532443
     421, -0.544143
     431, -0.554093
     441, -0.561773
     451, -0.568658
     461, -0.575914
     471, -0.583712
     481, -0.591686
     491, -0.599398
     501, -0.606678
     511, -0.613837
     521, -0.621396
     531, -0.629514
     541, -0.637671
     551, -0.645123
     561, -0.651992
     571, -0.659361
     581, -0.667719
     591, -0.676227
     601, -0.684056
     611, -0.691332
     621, -0.698510
     631, -0.705811
     641, -0.713297
     651, -0.720952
     661, -0.728702
     671, -0.736404
     681, -0.743949
     691, -0.751094
     701, -0.757817
     711, -0.763964
     721, -0.769651
     731, -0.775064
     741, -0.780506
     751, -0.786311
     761, -0.792635
     771, -0.799372
     781, -0.806272
     791, -0.813046
     801, -0.819408
     811, -0.825109
     821, -0.830033
     831, -0.834426
     841, -0.839071
     851, -0.845067
     861, -0.853067
     871, -0.862487
     881, -0.871709
     891, -0.879467
     901, -0.885767
     911, -0.891052
     921, -0.895033
     931, -0.896930
     941, -0.896697
     951, -0.895656
     961, -0.895836
     971, -0.898700
     981, -0.904308
     991, -0.911455
    1001, -0.918656
    1011, -0.924861
    1021, -0.930320
    1031, -0.935124
    1041, -0.939801
    1051, -0.944641
    1061, -0.949517
    1071, -0.954252
    1081, -0.958488
    1091, -0.962259
    1101, -0.965857
    1111, -0.969508
    1121, -0.973076
    1131, -0.975961
    1141, -0.977432
    1151, -0.977274
    1161, -0.976177
    1171, -0.975465
    1181, -0.976278
    1191, -0.978767
    1201, -0.981864
    1211, -0.983936
    1221, -0.984076
    1231, -0.983007
    1241, -0.982691
    1251, -0.985055
    1261, -0.990872
    1271, -0.999278
    1281, -1.007844
    1291, -1.013256
    1301, -1.012802
    1311, -1.006045
    1321, -0.995226
    1331, -0.983892
    1341, -0.975141
    1351, -0.970742
    1361, -0.971119
    1371, -0.975548
    1381, -0.982292
    1391, -0.988860
    1401, -0.992712
    1411, -0.992240
    1421, -0.987374
    1431, -0.979483
    1441, -0.970902
    1451, -0.964246
    1461, -0.961361
    1471, -0.962031
    1481, -0.963361
    1491, -0.961220
    1501, -0.953786
    1511, -0.943751
    1521, -0.936185
    1531, -0.934484
    1541, -0.938259
    1551, -0.944053
    1561, -0.948253
    1571, -0.950104
    1581, -0.951897
    1591, -0.956164
    1601, -0.962674
    1611, -0.967404
    1621, -0.964561
    1631, -0.951295
    1641, -0.930747
    1651, -0.909605
    1661, -0.893622
    1671, -0.885550
    1681, -0.885479
    1691, -0.891937
    1701, -0.902870
    1711, -0.916237
    1721, -0.930169
    1731, -0.942840
    1741, -0.952211
    1751, -0.956011
    1761, -0.952400
    1771, -0.941219
    1781, -0.924721
    1791, -0.906810
    1801, -0.891466
    1811, -0.881653
    1821, -0.879078
    1831, -0.884321
    1841, -0.896865
    1851, -0.914845
    1861, -0.934761
    1871, -0.951788
    1881, -0.961393
    1891, -0.961699
    1901, -0.954434
    1911, -0.943385
    1921, -0.932136
    1931, -0.922967
    1941, -0.916932
    1951, -0.914404
    1961, -0.915524
    1971, -0.920429
    1981, -0.929245
    1991, -0.941907
    2001, -0.957862
    2011, -0.975708
    2021, -0.992954
    2031, -1.006246
    2041, -1.012417
    2051, -1.010099
    2061, -1.000637
    2071, -0.987336
    2081, -0.973769
    2091, -0.962509
    2101, -0.954797
    2111, -0.950842
    2121, -0.950360
    2131, -0.953070
    2141, -0.958982
    2151, -0.968405
    2161, -0.981747
    2171, -0.999192
    2181, -1.020278
    2191, -1.043397
    2201, -1.065318
    2211, -1.081285
    2221, -1.086543
    2231, -1.079082
    2241, -1.061216
    2251, -1.038147
    2261, -1.015247
    2271, -0.996488
    2281, -0.984323
    2291, -0.980124
    2301, -0.984572
    2311, -0.997812
    2321, -1.019343
    2331, -1.047655
    2341, -1.079683
    2351, -1.110379
    2361, -1.133273
    2371, -1.142938
    2381, -1.138290
    2391, -1.123273
    2401, -1.104072
    2411, -1.086074
    2421, -1.072666
    2431, -1.065347
    2441, -1.064186
    2451, -1.068251
    2461, -1.076019
    2471, -1.085832
    2481, -1.096338
    2491, -1.106749
    2501, -1.116748
    2511, -1.126136
    2521, -1.134503
    2531, -1.141152
    2541, -1.145349
    2551, -1.146661
    2561, -1.145149
    2571, -1.141313
    2581, -1.135947
    2591, -1.130046
    2601, -1.124761
    2611, -1.121321
    2621, -1.120867
    2631, -1.124229
    2641, -1.131743
    2651, -1.143092
    2661, -1.157195
    2671, -1.172148
    2681, -1.185361
    2691, -1.194080
    2701, -1.196319
    2711, -1.191754
    2721, -1.181899
    2731, -1.169418
    2741, -1.157150
    2751, -1.147438
    2761, -1.141891
    2771, -1.141384
    2781, -1.146140
    2791, -1.155759
    2801, -1.169204
    2811, -1.184767
    2821, -1.200124
    2831, -1.212651
    2841, -1.220091
    2851, -1.221372
    2861, -1.217037
    2871, -1.208915
    2881, -1.199304
    2891, -1.190220
    2901, -1.183046
    2911, -1.178524
    2921, -1.176915
    2931, -1.178168
    2941, -1.182022
    2951, -1.188018
    2961, -1.195456
    2971, -1.203378
    2981, -1.210661
    2991, -1.216233
    3001, -1.219366
    3011, -1.219898
    3021, -1.218242
    3031, -1.215204
    3041, -1.211703
    3051, -1.208542
    3061, -1.206268
    3071, -1.205116
    3081, -1.205006
    3091, -1.205574
    3101, -1.206265
    3111, -1.206481
    3121, -1.205764
    3131, -1.203985
    3141, -1.201443
    3151, -1.198845
    3161, -1.197159
    3171, -1.197403
    3181, -1.200407
    3191, -1.206604
    3201, -1.215844
    3211, -1.227265
    3221, -1.239253
    3231, -1.249596
    3241, -1.255955
    3251, -1.256596
    3261, -1.251077
    3271, -1.240435
    3281, -1.226757
    3291, -1.212481
    3301, -1.199818
    3311, -1.190471
    3321, -1.185536
    3331, -1.185494
    3341, -1.190202
    3351, -1.198889
    3361, -1.210201
    3371, -1.222388
    3381, -1.233695
    3391, -1.242882
    3401, -1.249640
    3411, -1.254586
    3421, -1.258836
    3431, -1.263368
    3441, -1.268485
    3451, -1.273530
    3461, -1.276954
    3471, -1.276815
    3481, -1.271661
    3491, -1.261399
    3501, -1.247554
    3511, -1.232743
    3521, -1.219818
    3531, -1.211213
    3541, -1.208655
    3551, -1.213102
    3561, -1.224727
    3571, -1.242819
    3581, -1.265570
    3591, -1.289878
    3601, -1.311501
    3611, -1.326064
    3621, -1.330899
    3631, -1.326423
    3641, -1.315667
    3651, -1.302452
    3661, -1.289829
    3671, -1.279522
    3681, -1.272068
    3691, -1.267212
    3701, -1.264349
    3711, -1.262928
    3721, -1.262743
    3731, -1.264033
    3741, -1.267356
    3751, -1.273317
    3761, -1.282236
    3771, -1.293883
    3781, -1.307325
    3791, -1.320980
    3801, -1.332928
    3811, -1.341469
    3821, -1.345702
    3831, -1.345780
    3841, -1.342677
    3851, -1.337672
    3861, -1.331912
    3871, -1.326242
    3881, -1.321262
    3891, -1.317456
    3901, -1.315277
    3911, -1.315127
    3921, -1.317260
    3931, -1.321652
    3941, -1.327922
    3951, -1.335341
    3961, -1.342967
    3971, -1.349894
    3981, -1.355508
    3991, -1.359644
    4001, -1.362539
    4011, -1.364625
    4021, -1.366285
    4031, -1.367703
    4041, -1.368863
    4051, -1.369659
    4061, -1.370044
    4071, -1.370151
    4081, -1.370313
    4091, -1.370999
    4101, -1.372696
    4111, -1.375778
    4121, -1.380384
    4131, -1.386327
    4141, -1.393047
    4151, -1.399633
    4161, -1.404949
    4171, -1.407896
    4181, -1.407766
    4191, -1.404535
    4201, -1.398957
    4211, -1.392386
    4221, -1.386444
    4231, -1.382684
    4241, -1.382368
    4251, -1.386338
    4261, -1.394951
    4271, -1.408012
    4281, -1.424668
    4291, -1.443284
    4301, -1.461405
    4311, -1.475999
    4321, -1.484198
    4331, -1.484367
    4341, -1.476834
    4351, -1.463669
    4361, -1.447719
    4371, -1.431657
    4381, -1.417518
    4391, -1.406653
    4401, -1.399867
    4411, -1.397586
    4421, -1.399963
    4431, -1.406932
    4441, -1.418205
    4451, -1.433236
    4461, -1.451146
    4471, -1.470649
    4481, -1.489991
    4491, -1.507015
    4501, -1.519452
    4511, -1.525494
    4521, -1.524451
    4531, -1.517076
    4541, -1.505285
    4551, -1.491461
    4561, -1.477789
    4571, -1.465886
    4581, -1.456724
    4591, -1.450713
    4601, -1.447857
    4611, -1.447909
    4621, -1.450516
    4631, -1.455321
    4641, -1.462033
    4651, -1.470433
    4661, -1.480333
    4671, -1.491504
    4681, -1.503572
    4691, -1.515928
    4701, -1.527670
    4711, -1.537620
    4721, -1.544463
    4731, -1.547021
    4741, -1.544609
    4751, -1.537323
    4761, -1.526082
    4771, -1.512424
    4781, -1.498157
    4791, -1.485042
    4801, -1.474596
    4811, -1.468019
    4821, -1.466173
    4831, -1.469584
    4841, -1.478421
    4851, -1.492427
    4861, -1.510789
    4871, -1.531965
    4881, -1.553532
    4891, -1.572252
    4901, -1.584650
    4911, -1.588168
    4921, -1.582329
    4931, -1.568954
    4941, -1.551236
    4951, -1.532484
    4961, -1.515339
    4971, -1.501562
    4981, -1.492128
    4991, -1.487402
    5001, -1.487285
    5011, -1.491313
    5021, -1.498740
    5031, -1.508607
    5041, -1.519825
    5051, -1.531279
    5061, -1.541946
    5071, -1.550993
    5081, -1.557844
    5091, -1.562202
    5101, -1.564024
    5111, -1.563474
    5121, -1.560876
    5131, -1.556659
    5141, -1.551311
    5151, -1.545338
    5161, -1.539217
    5171, -1.533374
    5181, -1.528158
    5191, -1.523845
    5201, -1.520641
    5211, -1.518700
    5221, -1.518131
    5231, -1.519003
    5241, -1.521324
    5251, -1.525016
    5261, -1.529882
    5271, -1.535578
    5281, -1.541616
    5291, -1.547412
    5301, -1.552383
    5311, -1.556077
    5321, -1.558294
    5331, -1.559143
    5341, -1.558999
    5351, -1.558382
    5361, -1.557786
    5371, -1.557533
    5381, -1.557677
    5391, -1.557994
    5401, -1.558057
    5411, -1.557391
    5421, -1.555667
    5431, -1.552861
    5441, -1.549324
    5451, -1.545717
    5461, -1.542864
    5471, -1.541578
    5481, -1.542520
    5491, -1.546108
    5501, -1.552480
    5511, -1.561463
    5521, -1.572562
    5531, -1.584928
    5541, -1.597355
    5551, -1.608337
    5561, -1.616257
    5571, -1.619743
    5581, -1.618112
    5591, -1.611667
    5601, -1.601661
    5611, -1.589934
    5621, -1.578434
    5631, -1.568856
    5641, -1.562453
    5651, -1.559990
    5661, -1.561767
    5671, -1.567652
    5681, -1.577119
    5691, -1.589289
    5701, -1.602983
    5711, -1.616841
    5721, -1.629488
    5731, -1.639739
    5741, -1.646775
    5751, -1.650224
    5761, -1.650128
    5771, -1.646843
    5781, -1.640949
    5791, -1.633185
    5801, -1.624424
    5811, -1.615630
    5821, -1.607788
    5831, -1.601819
    5841, -1.598490
    5851, -1.598336
    5861, -1.601594
    5871, -1.608163
    5881, -1.617558
    5891, -1.628899
    5901, -1.640951
    5911, -1.652257
    5921, -1.661403
    5931, -1.667353
    5941, -1.669742
    5951, -1.668944
    5961, -1.665884
    5971, -1.661700
    5981, -1.657412
    5991, -1.653722
    6001, -1.650949
    6011, -1.649078
    6021, -1.647865
    6031, -1.646986
    6041, -1.646174
    6051, -1.645319
    6061, -1.644510
    6071, -1.643999
    6081, -1.644115
    6091, -1.645176
    6101, -1.647413
    6111, -1.650928
    6121, -1.655697
    6131, -1.661599
    6141, -1.668443
    6151, -1.675999
    6161, -1.683984
    6171, -1.692026
    6181, -1.699607
    6191, -1.706029
    6201, -1.710430
    6211, -1.711925
    6221, -1.709830
    6231, -1.703918
    6241, -1.694580
    6251, -1.682789
    6261, -1.669890
    6271, -1.657339
    6281, -1.646483
    6291, -1.638433
    6301, -1.634019
    6311, -1.633789
    6321, -1.638019
    6331, -1.646705
    6341, -1.659538
    6351, -1.675844
    6361, -1.694521
    6371, -1.713996
    6381, -1.732279
    6391, -1.747204
    6401, -1.756887
    6411, -1.760244
    6421, -1.757312
    6431, -1.749136
    6441, -1.737331
    6451, -1.723603
    6461, -1.709449
    6471, -1.696058
    6481, -1.684338
    6491, -1.674987
    6501, -1.668548
    6511, -1.665438
    6521, -1.665943
    6531, -1.670190
    6541, -1.678094
    6551, -1.689302
    6561, -1.703117
    6571, -1.718460
    6581, -1.733875
    6591, -1.747666
    6601, -1.758181
    6611, -1.764210
    6621, -1.765319
    6631, -1.761938
    6641, -1.755150
    6651, -1.746326
    6661, -1.736812
    6671, -1.727753
    6681, -1.720061
    6691, -1.714443
    6701, -1.711449
    6711, -1.711485
    6721, -1.714795
    6731, -1.721391
    6741, -1.730956
    6751, -1.742733
    6761, -1.755435
    6771, -1.767283
    6781, -1.776267
    6791, -1.780673
    6801, -1.779710
    6811, -1.773856
    6821, -1.764663
    6831, -1.754179
    6841, -1.744345
    6851, -1.736636
    6861, -1.731948
    6871, -1.730638
    6881, -1.732610
    6891, -1.737417
    6901, -1.744369
    6911, -1.752638
    6921, -1.761387
    6931, -1.769888
    6941, -1.777623
    6951, -1.784316
    6961, -1.789893
    6971, -1.794381
    6981, -1.797785
    6991, -1.800002
    7001, -1.800798
    7011, -1.799865
    7021, -1.796952
    7031, -1.792002
    7041, -1.785259
    7051, -1.777278
    7061, -1.768847
    7071, -1.760857
    7081, -1.754169
    7091, -1.749519
    7101, -1.747461
    7111, -1.748350
    7121, -1.752339
    7131, -1.759383
    7141, -1.769234
    7151, -1.781430
    7161, -1.795269
    7171, -1.809797
    7181, -1.823812
    7191, -1.835949
    7201, -1.844856
    7211, -1.849468
    7221, -1.849283
    7231, -1.844523
    7241, -1.836068
    7251, -1.825216
    7261, -1.813386
    7271, -1.801884
    7281, -1.791782
    7291, -1.783884
    7301, -1.778745
    7311, -1.776703
    7321, -1.777915
    7331, -1.782368
    7341, -1.789881
    7351, -1.800089
    7361, -1.812415
    7371, -1.826045
    7381, -1.839936
    7391, -1.852860
    7401, -1.863548
    7411, -1.870900
    7421, -1.874230
    7431, -1.873440
    7441, -1.869032
    7451, -1.861969
    7461, -1.853436
    7471, -1.844634
    7481, -1.836627
    7491, -1.830283
    7501, -1.826251
    7511, -1.824972
    7521, -1.826683
    7531, -1.831416
    7541, -1.838981
    7551, -1.848937
    7561, -1.860565
    7571, -1.872862
    7581, -1.884596
    7591, -1.894447
    7601, -1.901256
    7611, -1.904306
    7621, -1.903531
    7631, -1.899518
    7641, -1.893326
    7651, -1.886196
    7661, -1.879308
    7671, -1.873616
    7681, -1.869794
    7691, -1.868236
    7701, -1.869085
    7711, -1.872264
    7721, -1.877504
    7731, -1.884365
    7741, -1.892254
    7751, -1.900459
    7761, -1.908199
    7771, -1.914709
    7781, -1.919355
    7791, -1.921750
    7801, -1.921851
    7811, -1.919974
    7821, -1.916740
    7831, -1.912960
    7841, -1.909494
    7851, -1.907128
    7861, -1.906486
    7871, -1.907961
    7881, -1.911682
    7891, -1.917482
    7901, -1.924897
    7911, -1.933181
    7921, -1.941382
    7931, -1.948482
    7941, -1.953600
    7951, -1.956195
    7961, -1.956203
    7971, -1.954017
    7981, -1.950341
    7991, -1.945980
    8001, -1.941653
    8011, -1.937889
    8021, -1.935001
    8031, -1.933120
    8041, -1.932271
    8051, -1.932448
    8061, -1.933680
    8071, -1.936066
    8081, -1.939773
    8091, -1.944989
    8101, -1.951861
    8111, -1.960404
    8121, -1.970415
    8131, -1.981397
    8141, -1.992522
    8151, -2.002661
    8161, -2.010534
    8171, -2.014986
    8181, -2.015319
    8191, -2.011544
    8201, -2.004412
    8211, -1.995200
    8221, -1.985392
    8231, -1.976390
    8241, -1.969350
    8251, -1.965108
    8261, -1.964186
    8271, -1.966811
    8281, -1.972929
    8291, -1.982208
    8301, -1.994021
    8311, -2.007436
    8321, -2.021225
    8331, -2.033947
    8341, -2.044133
    8351, -2.050569
    8361, -2.052599
    8371, -2.050303
    8381, -2.044458
    8391, -2.036301
    8401, -2.027230
    8411, -2.018555
    8421, -2.011358
    8431, -2.006441
    8441, -2.004326
    8451, -2.005265
    8461, -2.009251
    8471, -2.016016
    8481, -2.025026
    8491, -2.035480
    8501, -2.046345
    8511, -2.056448
    8521, -2.064653
    8531, -2.070079
    8541, -2.072312
    8551, -2.071501
    8561, -2.068291
    8571, -2.063629
    8581, -2.058534
    8591, -2.053910
    8601, -2.050434
    8611, -2.048509
    8621, -2.048264
    8631, -2.049569
    8641, -2.052075
    8651, -2.055271
    8661, -2.058554
    8671, -2.061341
    8681, -2.063178
    8691, -2.063843
    8701, -2.063399
    8711, -2.062176
    8721, -2.060695
    8731, -2.059548
    8741, -2.059282
    8751, -2.060296
    8761, -2.062775
    8771, -2.066645
    8781, -2.071571
    8791, -2.076976
    8801, -2.082123
    8811, -2.086241
    8821, -2.088689
    8831, -2.089118
    8841, -2.087566
    8851, -2.084435
    8861, -2.080376
    8871, -2.076114
    8881, -2.072291
    8891, -2.069345
    8901, -2.067456
    8911, -2.066540
    8921, -2.066285
    8931, -2.066234
    8941, -2.065899
    8951, -2.064886
    8961, -2.063016
    8971, -2.060392
    8981, -2.057390
    8991, -2.054586
    9001, -2.052635
    9011, -2.052149
    9021, -2.053589
    9031, -2.057175
    9041, -2.062829
    9051, -2.070128
    9061, -2.078294
    9071, -2.086238
    9081, -2.092692
    9091, -2.096461
    9101, -2.096725
    9111, -2.093297
    9121, -2.086688
    9131, -2.077952
    9141, -2.068399
    9151, -2.059316
    9161, -2.051774
    9171, -2.046554
    9181, -2.044132
    9191, -2.044701
    9201, -2.048191
    9211, -2.054296
    9221, -2.062478
    9231, -2.071982
    9241, -2.081864
    9251, -2.091065
    9261, -2.098533
    9271, -2.103399
    9281, -2.105155
    9291, -2.103767
    9301, -2.099676
    9311, -2.093673
    9321, -2.086716
    9331, -2.079752
    9341, -2.073597
    9351, -2.068860
    9361, -2.065933
    9371, -2.064997
    9381, -2.066046
    9391, -2.068919
    9401, -2.073338
    9411, -2.078948
    9421, -2.085365
    9431, -2.092222
    9441, -2.099206
    9451, -2.106081
    9461, -2.112688
    9471, -2.118920
    9481, -2.124679
    9491, -2.129839
    9501, -2.134207
    9511, -2.137524
    9521, -2.139483
    9531, -2.139793
    9541, -2.138248
    9551, -2.134804
    9561, -2.129623
    9571, -2.123078
    9581, -2.115719
    9591, -2.108214
    9601, -2.101275
    9611, -2.095609
    9621, -2.091867
    9631, -2.090621
    9641, -2.092341
    9651, -2.097368
    9661, -2.105884
    9671, -2.117855
    9681, -2.132943
    9691, -2.150400
    9701, -2.168940
    9711, -2.186686
    9721, -2.201295
    9731, -2.210424
    9741, -2.212479
    9751, -2.207298
    9761, -2.196255
    9771, -2.181712
    9781, -2.166228
    9791, -2.151996
    9801, -2.140617
    9811, -2.133117
    9821, -2.130034
    9831, -2.131519
    9841, -2.137391
    9851, -2.147155
    9861, -2.159989
    9871, -2.174735
    9881, -2.189930
    9891, -2.203935
    9901, -2.215202
    9911, -2.222629
    9921, -2.225862
    9931, -2.225378
    9941, -2.222273
    9951, -2.217910
    9961, -2.213576
    9971, -2.210269
    9981, -2.208626
    9991, -2.208931
   10001, -2.211181
   10011, -2.215153
   10021, -2.220481
   10031, -2.226722
   10041, -2.233410
   10051, -2.240096
   10061, -2.246367
   10071, -2.251856
   10081, -2.256246
   10091, -2.259299
   10101, -2.260888
   10111, -2.261050
   10121, -2.260017
   10131, -2.258223
   10141, -2.256258
   10151, -2.254790
   10161, -2.254469
   10171, -2.255831
   10181, -2.259222
   10191, -2.264735
   10201, -2.272170
   10211, -2.281015
   10221, -2.290464
   10231, -2.299490
   10241, -2.307001
   10251, -2.312049
   10261, -2.314066
   10271, -2.313002
   10281, -2.309321
   10291, -2.303851
   10301, -2.297568
   10311, -2.291411
   10321, -2.286164
   10331, -2.282412
   10341, -2.280552
   10351, -2.280818
   10361, -2.283304
   10371, -2.287981
   10381, -2.294693
   10391, -2.303136
   10401, -2.312826
   10411, -2.323075
   10421, -2.332996
   10431, -2.341567
   10441, -2.347783
   10451, -2.350873
   10461, -2.350524
   10471, -2.347003
   10481, -2.341113
   10491, -2.334003
   10501, -2.326924
   10511, -2.321025
   10521, -2.317222
   10531, -2.316141
   10541, -2.318092
   10551, -2.323064
   10561, -2.330701
   10571, -2.340284
   10581, -2.350725
   10591, -2.360626
   10601, -2.368442
   10611, -2.372797
   10621, -2.372864
   10631, -2.368642
   10641, -2.360984
   10651, -2.351336
   10661, -2.341362
   10671, -2.332630
   10681, -2.326416
   10691, -2.323651
   10701, -2.324907
   10711, -2.330404
   10721, -2.339996
   10731, -2.353106
   10741, -2.368645
   10751, -2.384931
   10761, -2.399725
   10771, -2.410525
   10781, -2.415201
   10791, -2.412760
   10801, -2.403772
   10811, -2.390123
   10821, -2.374298
   10831, -2.358679
   10841, -2.345173
   10851, -2.335126
   10861, -2.329403
   10871, -2.328487
   10881, -2.332566
   10891, -2.341562
   10901, -2.355111
   10911, -2.372485
   10921, -2.392466
   10931, -2.413221
   10941, -2.432285
   10951, -2.446822
   10961, -2.454322
   10971, -2.453520
   10981, -2.444955
   10991, -2.430706
   11001, -2.413528
   11011, -2.396010
   11021, -2.380146
   11031, -2.367258
   11041, -2.358100
   11051, -2.352992
   11061, -2.351936
   11071, -2.354683
   11081, -2.360777
   11091, -2.369579
   11101, -2.380285
   11111, -2.391967
   11121, -2.403635
   11131, -2.414343
   11141, -2.423308
   11151, -2.430034
   11161, -2.434366
   11171, -2.436471
   11181, -2.436745
   11191, -2.435684
   11201, -2.433751
   11211, -2.431299
   11221, -2.428524
   11231, -2.425471
   11241, -2.422072
   11251, -2.418200
   11261, -2.413739
   11271, -2.408649
   11281, -2.403011
   11291, -2.397048
   11301, -2.391115
   11311, -2.385664
   11321, -2.381199
   11331, -2.378228
   11341, -2.377216
   11351, -2.378559
   11361, -2.382548
   11371, -2.389342
   11381, -2.398926
   11391, -2.411059
   11401, -2.425199
   11411, -2.440418
   11421, -2.455343
   11431, -2.468179
   11441, -2.476931
   11451, -2.479858
   11461, -2.476045
   11471, -2.465782
   11481, -2.450487
   11491, -2.432222
   11501, -2.413139
   11511, -2.395093
   11521, -2.379506
   11531, -2.367375
   11541, -2.359346
   11551, -2.355800
   11561, -2.356912
   11571, -2.362679
   11581, -2.372929
   11591, -2.387289
   11601, -2.405139
   11611, -2.425531
   11621, -2.447112
   11631, -2.468089
   11641, -2.486316
   11651, -2.499589
   11661, -2.506151
   11671, -2.505215
   11681, -2.497195
   11691, -2.483491
   11701, -2.465989
   11711, -2.446579
   11721, -2.426892
   11731, -2.408216
   11741, -2.391539
   11751, -2.377626
   11761, -2.367086
   11771, -2.360422
   11781, -2.358058
   11791, -2.360344
   11801, -2.367546
   11811, -2.379799
   11821, -2.397033
   11831, -2.418827
   11841, -2.444187
   11851, -2.471239
   11861, -2.496953
   11871, -2.517229
   11881, -2.527838
   11891, -2.526255
   11901, -2.513123
   11911, -2.491901
   11921, -2.467064
   11931, -2.442509
   11941, -2.420961
   11951, -2.404065
   11961, -2.392688
   11971, -2.387182
   11981, -2.387548
   11991, -2.393512
   12001, -2.404519
   12011, -2.419685
   12021, -2.437706
   12031, -2.456806
   12041, -2.474780
   12051, -2.489286
   12061, -2.498387
   12071, -2.501188
   12081, -2.498151
   12091, -2.490869
   12101, -2.481458
   12111, -2.471952
   12121, -2.463956
   12131, -2.458545
   12141, -2.456295
   12151, -2.457359
   12161, -2.461528
   12171, -2.468274
   12181, -2.476781
   12191, -2.485989
   12201, -2.494682
   12211, -2.501650
   12221, -2.505906
   12231, -2.506910
   12241, -2.504703
   12251, -2.499878
   12261, -2.493416
   12271, -2.486456
   12281, -2.480098
   12291, -2.475282
   12301, -2.472722
   12311, -2.472905
   12321, -2.476092
   12331, -2.482325
   12341, -2.491421
   12351, -2.502958
   12361, -2.516247
   12371, -2.530331
   12381, -2.544015
   12391, -2.555978
   12401, -2.564986
   12411, -2.570163
   12421, -2.571214
   12431, -2.568503
   12441, -2.562924
   12451, -2.555648
   12461, -2.547862
   12471, -2.540584
   12481, -2.534578
   12491, -2.530344
   12501, -2.528139
   12511, -2.528016
   12521, -2.529868
   12531, -2.533458
   12541, -2.538456
   12551, -2.544470
   12561, -2.551084
   12571, -2.557890
   12581, -2.564533
   12591, -2.570741
   12601, -2.576350
   12611, -2.581306
   12621, -2.585657
   12631, -2.589516
   12641, -2.593030
   12651, -2.596332
   12661, -2.599508
   12671, -2.602578
   12681, -2.605485
   12691, -2.608103
   12701, -2.610262
   12711, -2.611786
   12721, -2.612530
   12731, -2.612422
   12741, -2.611487
   12751, -2.609852
   12761, -2.607738
   12771, -2.605426
   12781, -2.603221
   12791, -2.601417
   12801, -2.600266
   12811, -2.599958
   12821, -2.600609
   12831, -2.602262
   12841, -2.604884
   12851, -2.608378
   12861, -2.612594
   12871, -2.617335
   12881, -2.622377
   12891, -2.627483
   12901, -2.632423
   12911, -2.636996
   12921, -2.641047
   12931, -2.644489
   12941, -2.647309
   12951, -2.649568
   12961, -2.651383
   12971, -2.652901
   12981, -2.654262
   12991, -2.655557
   13001, -2.656794
   13011, -2.657872
   13021, -2.658573
   13031, -2.658583
   13041, -2.657542
   13051, -2.655120
   13061, -2.651109
   13071, -2.645498
   13081, -2.638515
   13091, -2.630617
   13101, -2.622429
   13111, -2.614665
   13121, -2.608045
   13131, -2.603228
   13141, -2.600769
   13151, -2.601099
   13161, -2.604503
   13171, -2.611106
   13181, -2.620854
   13191, -2.633467
   13201, -2.648387
   13211, -2.664713
   13221, -2.681144
   13231, -2.696004
   13241, -2.707403
   13251, -2.713597
   13261, -2.713467
   13271, -2.706900
   13281, -2.694815
   13291, -2.678840
   13301, -2.660821
   13311, -2.642448
   13321, -2.625062
   13331, -2.609625
   13341, -2.596768
   13351, -2.586867
   13361, -2.580102
   13371, -2.576515
   13381, -2.576034
   13391, -2.578498
   13401, -2.583664
   13411, -2.591215
   13421, -2.600759
   13431, -2.611836
   13441, -2.623922
   13451, -2.636435
   13461, -2.648756
   13471, -2.660235
   13481, -2.670216
   13491, -2.678057
   13501, -2.683166
   13511, -2.685055
   13521, -2.683405
   13531, -2.678141
   13541, -2.669482
   13551, -2.657947
   13561, -2.644306
   13571, -2.629487
   13581, -2.614472
   13591, -2.600203
   13601, -2.587522
   13611, -2.577136
   13621, -2.569604
   13631, -2.565341
   13641, -2.564617
   13651, -2.567557
   13661, -2.574119
   13671, -2.584069
   13681, -2.596925
   13691, -2.611902
   13701, -2.627858
   13711, -2.643292
   13721, -2.656465
   13731, -2.665683
   13741, -2.669726
   13751, -2.668237
   13761, -2.661842
   13771, -2.651929
   13781, -2.640217
   13791, -2.628364
   13801, -2.617726
   13811, -2.609275
   13821, -2.603621
   13831, -2.601054
   13841, -2.601598
   13851, -2.605037
   13861, -2.610936
   13871, -2.618649
   13881, -2.627342
   13891, -2.636038
   13901, -2.643713
   13911, -2.649437
   13921, -2.652545
   13931, -2.652772
   13941, -2.650300
   13951, -2.645695
   13961, -2.639763
   13971, -2.633388
   13981, -2.627396
   13991, -2.622477
   14001, -2.619154
   14011, -2.617786
   14021, -2.618582
   14031, -2.621620
   14041, -2.626858
   14051, -2.634139
   14061, -2.643184
   14071, -2.653576
   14081, -2.664738
   14091, -2.675928
   14101, -2.686249
   14111, -2.694720
   14121, -2.700403
   14131, -2.702584
   14141, -2.700964
   14151, -2.695755
   14161, -2.687665
   14171, -2.677745
   14181, -2.667194
   14191, -2.657183
   14201, -2.648738
   14211, -2.642683
   14221, -2.639633
   14231, -2.639989
   14241, -2.643952
   14251, -2.651508
   14261, -2.662401
   14271, -2.676084
   14281, -2.691658
   14291, -2.707831
   14301, -2.722950
   14311, -2.735173
   14321, -2.742839
   14331, -2.744941
   14341, -2.741470
   14351, -2.733419
   14361, -2.722436
   14371, -2.710357
   14381, -2.698837
   14391, -2.689182
   14401, -2.682314
   14411, -2.678816
   14421, -2.678994
   14431, -2.682924
   14441, -2.690468
   14451, -2.701277
   14461, -2.714759
   14471, -2.730037
   14481, -2.745926
   14491, -2.760960
   14501, -2.773519
   14511, -2.782110
   14521, -2.785728
   14531, -2.784155
   14541, -2.778033
   14551, -2.768649
   14561, -2.757578
   14571, -2.746352
   14581, -2.736266
   14591, -2.728299
   14601, -2.723133
   14611, -2.721188
   14621, -2.722667
   14631, -2.727579
   14641, -2.735752
   14651, -2.746820
   14661, -2.760201
   14671, -2.775072
   14681, -2.790367
   14691, -2.804824
   14701, -2.817110
   14711, -2.826045
   14721, -2.830856
   14731, -2.831373
   14741, -2.828055
   14751, -2.821839
   14761, -2.813885
   14771, -2.805338
   14781, -2.797175
   14791, -2.790134
   14801, -2.784717
   14811, -2.781215
   14821, -2.779752
   14831, -2.780311
   14841, -2.782773
   14851, -2.786929
   14861, -2.792497
   14871, -2.799134
   14881, -2.806447
   14891, -2.814004
   14901, -2.821356
   14911, -2.828066
   14921, -2.833741
   14931, -2.838081
   14941, -2.840906
   14951, -2.842187
   14961, -2.842047