 variables=iter,cl,cd,cm,clim,cdim,cmim,clip,cdip,cmip,cljm,cdjm,cmjm,cljp,cdjp,cmjp
 zone t ="coefhist", f=point
       1  7.844755E-02  1.831027E-02 -3.980425E-02  0.000000E+00  0.000000E+00  0.000000E+00  0.000000E+00  0.000000E+00  0.000000E+00  7.844755E-02  1.831027E-02 -3.980425E-02  0.000000E+00  0.000000E+00  0.000000E+00
      11  6.829643E-01  1.671158E-01 -3.521560E-01  0.000000E+00  0.000000E+00  0.000000E+00  0.000000E+00  0.000000E+00  0.000000E+00  6.829643E-01  1.671158E-01 -3.521560E-01  0.000000E+00  0.000000E+00  0.000000E+00
      21  8.619718E-01  2.320724E-01 -4.459795E-01  0.000000E+00  0.000000E+00  0.000000E+00  0.000000E+00  0.000000E+00  0.000000E+00  8.619718E-01  2.320724E-01 -4.459795E-01  0.000000E+00  0.000000E+00  0.000000E+00
      31  7.727166E-01  2.348212E-01 -3.932620E-01  0.000000E+00  0.000000E+00  0.000000E+00  0.000000E+00  0.000000E+00  0.000000E+00  7.727166E-01  2.348212E-01 -3.932620E-01  0.000000E+00  0.000000E+00  0.000000E+00
      41  6.376362E-01  2.135001E-01 -3.124789E-01  0.000000E+00  0.000000E+00  0.000000E+00  0.000000E+00  0.000000E+00  0.000000E+00  6.376362E-01  2.135001E-01 -3.124789E-01  0.000000E+00  0.000000E+00  0.000000E+00
      51  5.458787E-01  1.886184E-01 -2.540288E-01  0.000000E+00  0.000000E+00  0.000000E+00  0.000000E+00  0.000000E+00  0.000000E+00  5.458787E-01  1.886184E-01 -2.540288E-01  0.000000E+00  0.000000E+00  0.000000E+00
      61  4.893522E-01  1.657525E-01 -2.142799E-01  0.000000E+00  0.000000E+00  0.000000E+00  0.000000E+00  0.000000E+00  0.000000E+00  4.893522E-01  1.657525E-01 -2.142799E-01  0.000000E+00  0.000000E+00  0.000000E+00
      71  4.427333E-01  1.456872E-01 -1.797552E-01  0.000000E+00  0.000000E+00  0.000000E+00  0.000000E+00  0.000000E+00  0.000000E+00  4.427333E-01  1.456872E-01 -1.797552E-01  0.000000E+00  0.000000E+00  0.000000E+00
      81  3.958616E-01  1.285299E-01 -1.457911E-01  0.000000E+00  0.000000E+00  0.000000E+00  0.000000E+00  0.000000E+00  0.000000E+00  3.958616E-01  1.285299E-01 -1.457911E-01  0.000000E+00  0.000000E+00  0.000000E+00
      91  3.498889E-01  1.138018E-01 -1.139049E-01  0.000000E+00  0.000000E+00  0.000000E+00  0.000000E+00  0.000000E+00  0.000000E+00  3.498889E-01  1.138018E-01 -1.139049E-01  0.000000E+00  0.000000E+00  0.000000E+00
     101  3.075733E-01  1.002787E-01 -8.582726E-02  0.000000E+00  0.000000E+00  0.000000E+00  0.000000E+00  0.000000E+00  0.000000E+00  3.075733E-01  1.002787E-01 -8.582726E-02  0.000000E+00  0.000000E+00  0.000000E+00
     111  2.697865E-01  8.649927E-02 -6.168172E-02  0.000000E+00  0.000000E+00  0.000000E+00  0.000000E+00  0.000000E+00  0.000000E+00  2.697865E-01  8.649927E-02 -6.168172E-02  0.000000E+00  0.000000E+00  0.000000E+00
     121  2.363436E-01  7.138752E-02 -4.090110E-02  0.000000E+00  0.000000E+00  0.000000E+00  0.000000E+00  0.000000E+00  0.000000E+00  2.363436E-01  7.138752E-02 -4.090110E-02  0.000000E+00  0.000000E+00  0.000000E+00
     131  2.071596E-01  5.454498E-02 -2.316271E-02  0.000000E+00  0.000000E+00  0.000000E+00  0.000000E+00  0.000000E+00  0.000000E+00  2.071596E-01  5.454498E-02 -2.316271E-02  0.000000E+00  0.000000E+00  0.000000E+00
     141  1.823585E-01  3.620674E-02 -8.487411E-03  0.000000E+00  0.000000E+00  0.000000E+00  0.000000E+00  0.000000E+00  0.000000E+00  1.823585E-01  3.620674E-02 -8.487411E-03  0.000000E+00  0.000000E+00  0.000000E+00
     151  1.617685E-01  1.702942E-02  3.115045E-03  0.000000E+00  0.000000E+00  0.000000E+00  0.000000E+00  0.000000E+00  0.000000E+00  1.617685E-01  1.702942E-02  3.115045E-03  0.000000E+00  0.000000E+00  0.000000E+00
     161  1.445366E-01 -2.158803E-03  1.192868E-02  0.000000E+00  0.000000E+00  0.000000E+00  0.000000E+00  0.000000E+00  0.000000E+00  1.445366E-01 -2.158803E-03  1.192868E-02  0.000000E+00  0.000000E+00  0.000000E+00
     171  1.292350E-01 -2.056954E-02  1.852318E-02  0.000000E+00  0.000000E+00  0.000000E+00  0.000000E+00  0.000000E+00  0.000000E+00  1.292350E-01 -2.056954E-02  1.852318E-02  0.000000E+00  0.000000E+00  0.000000E+00
     181  1.144572E-01 -3.756565E-02  2.347697E-02  0.000000E+00  0.000000E+00  0.000000E+00  0.000000E+00  0.000000E+00  0.000000E+00  1.144572E-01 -3.756565E-02  2.347697E-02  0.000000E+00  0.000000E+00  0.000000E+00
     191  9.958234E-02 -5.263943E-02  2.700172E-02  0.000000E+00  0.000000E+00  0.000000E+00  0.000000E+00  0.000000E+00  0.000000E+00  9.958234E-02 -5.263943E-02  2.700172E-02  0.000000E+00  0.000000E+00  0.000000E+00
     201  8.517298E-02 -6.530412E-02  2.876400E-02  0.000000E+00  0.000000E+00  0.000000E+00  0.000000E+00  0.000000E+00  0.000000E+00  8.517298E-02 -6.530412E-02  2.876400E-02  0.000000E+00  0.000000E+00  0.000000E+00
     211  7.264079E-02 -7.501679E-02  2.813554E-02  0.000000E+00  0.000000E+00  0.000000E+00  0.000000E+00  0.000000E+00  0.000000E+00  7.264079E-02 -7.501679E-02  2.813554E-02  0.000000E+00  0.000000E+00  0.000000E+00
     221  6.337602E-02 -8.123093E-02  2.475680E-02  0.000000E+00  0.000000E+00  0.000000E+00  0.000000E+00  0.000000E+00  0.000000E+00  6.337602E-02 -8.123093E-02  2.475680E-02  0.000000E+00  0.000000E+00  0.000000E+00
     231  5.800527E-02 -8.356581E-02  1.896993E-02  0.000000E+00  0.000000E+00  0.000000E+00  0.000000E+00  0.000000E+00  0.000000E+00  5.800527E-02 -8.356581E-02  1.896993E-02  0.000000E+00  0.000000E+00  0.000000E+00
     241  5.631873E-02 -8.197804E-02  1.175576E-02  0.000000E+00  0.000000E+00  0.000000E+00  0.000000E+00  0.000000E+00  0.000000E+00  5.631873E-02 -8.197804E-02  1.175576E-02  0.000000E+00  0.000000E+00  0.000000E+00
     251  5.779374E-02 -7.681872E-02  4.245539E-03  0.000000E+00  0.000000E+00  0.000000E+00  0.000000E+00  0.000000E+00  0.000000E+00  5.779374E-02 -7.681872E-02  4.245539E-03  0.000000E+00  0.000000E+00  0.000000E+00
     261  6.214863E-02 -6.874611E-02 -2.776245E-03  0.000000E+00  0.000000E+00  0.000000E+00  0.000000E+00  0.000000E+00  0.000000E+00  6.214863E-02 -6.874611E-02 -2.776245E-03  0.000000E+00  0.000000E+00  0.000000E+00
     271  6.944344E-02 -5.855193E-02 -9.029777E-03  0.000000E+00  0.000000E+00  0.000000E+00  0.000000E+00  0.000000E+00  0.000000E+00  6.944344E-02 -5.855193E-02 -9.029777E-03  0.000000E+00  0.000000E+00  0.000000E+00
     281  7.974097E-02 -4.699382E-02 -1.456412E-02  0.000000E+00  0.000000E+00  0.000000E+00  0.000000E+00  0.000000E+00  0.000000E+00  7.974097E-02 -4.699382E-02 -1.456412E-02  0.000000E+00  0.000000E+00  0.000000E+00
     291  9.272018E-02 -3.470351E-02 -1.951296E-02  0.000000E+00  0.000000E+00  0.000000E+00  0.000000E+00  0.000000E+00  0.000000E+00  9.272018E-02 -3.470351E-02 -1.951296E-02  0.000000E+00  0.000000E+00  0.000000E+00
     301  1.076326E-01 -2.218553E-02 -2.401155E-02  0.000000E+00  0.000000E+00  0.000000E+00  0.000000E+00  0.000000E+00  0.000000E+00  1.076326E-01 -2.218553E-02 -2.401155E-02  0.000000E+00  0.000000E+00  0.000000E+00
     311  1.236215E-01 -9.870322E-03 -2.825915E-02  0.000000E+00  0.000000E+00  0.000000E+00  0.000000E+00  0.000000E+00  0.000000E+00  1.236215E-01 -9.870322E-03 -2.825915E-02  0.000000E+00  0.000000E+00  0.000000E+00
     321  1.400798E-01  1.830770E-03 -3.255132E-02  0.000000E+00  0.000000E+00  0.000000E+00  0.000000E+00  0.000000E+00  0.000000E+00  1.400798E-01  1.830770E-03 -3.255132E-02  0.000000E+00  0.000000E+00  0.000000E+00
     331  1.567563E-01  1.250128E-02 -3.718970E-02  0.000000E+00  0.000000E+00  0.000000E+00  0.000000E+00  0.000000E+00  0.000000E+00  1.567563E-01  1.250128E-02 -3.718970E-02  0.000000E+00  0.000000E+00  0.000000E+00
     341  1.736206E-01  2.172977E-02 -4.234878E-02  0.000000E+00  0.000000E+00  0.000000E+00  0.000000E+00  0.000000E+00  0.000000E+00  1.736206E-01  2.172977E-02 -4.234878E-02  0.000000E+00  0.000000E+00  0.000000E+00
     351  1.906866E-01  2.914874E-02 -4.802319E-02  0.000000E+00  0.000000E+00  0.000000E+00  0.000000E+00  0.000000E+00  0.000000E+00  1.906866E-01  2.914874E-02 -4.802319E-02  0.000000E+00  0.000000E+00  0.000000E+00
     361  2.079234E-01  3.450025E-02 -5.408070E-02  0.000000E+00  0.000000E+00  0.000000E+00  0.000000E+00  0.000000E+00  0.000000E+00  2.079234E-01  3.450025E-02 -5.408070E-02  0.000000E+00  0.000000E+00  0.000000E+00
     371  2.252197E-01  3.772182E-02 -6.035335E-02  0.000000E+00  0.000000E+00  0.000000E+00  0.000000E+00  0.000000E+00  0.000000E+00  2.252197E-01  3.772182E-02 -6.035335E-02  0.000000E+00  0.000000E+00  0.000000E+00
     381  2.423306E-01  3.902277E-02 -6.669676E-02  0.000000E+00  0.000000E+00  0.000000E+00  0.000000E+00  0.000000E+00  0.000000E+00  2.423306E-01  3.902277E-02 -6.669676E-02  0.000000E+00  0.000000E+00  0.000000E+00
     391  2.588104E-01  3.890139E-02 -7.299742E-02  0.000000E+00  0.000000E+00  0.000000E+00  0.000000E+00  0.000000E+00  0.000000E+00  2.588104E-01  3.890139E-02 -7.299742E-02  0.000000E+00  0.000000E+00  0.000000E+00
     401  2.740046E-01  3.805910E-02 -7.914566E-02  0.000000E+00  0.000000E+00  0.000000E+00  0.000000E+00  0.000000E+00  0.000000E+00  2.740046E-01  3.805910E-02 -7.914566E-02  0.000000E+00  0.000000E+00  0.000000E+00
     411  2.871543E-01  3.720983E-02 -8.500202E-02  0.000000E+00  0.000000E+00  0.000000E+00  0.000000E+00  0.000000E+00  0.000000E+00  2.871543E-01  3.720983E-02 -8.500202E-02  0.000000E+00  0.000000E+00  0.000000E+00
     421  2.975997E-01  3.684465E-02 -9.037993E-02  0.000000E+00  0.000000E+00  0.000000E+00  0.000000E+00  0.000000E+00  0.000000E+00  2.975997E-01  3.684465E-02 -9.037993E-02  0.000000E+00  0.000000E+00  0.000000E+00
     431  3.050154E-01  3.705317E-02 -9.505562E-02  0.000000E+00  0.000000E+00  0.000000E+00  0.000000E+00  0.000000E+00  0.000000E+00  3.050154E-01  3.705317E-02 -9.505562E-02  0.000000E+00  0.000000E+00  0.000000E+00
     441  3.096043E-01  3.748657E-02 -9.880493E-02  0.000000E+00  0.000000E+00  0.000000E+00  0.000000E+00  0.000000E+00  0.000000E+00  3.096043E-01  3.748657E-02 -9.880493E-02  0.000000E+00  0.000000E+00  0.000000E+00
     451  3.121614E-01  3.749541E-02 -1.014617E-01  0.000000E+00  0.000000E+00  0.000000E+00  0.000000E+00  0.000000E+00  0.000000E+00  3.121614E-01  3.749541E-02 -1.014617E-01  0.000000E+00  0.000000E+00  0.000000E+00
     461  3.138875E-01  3.640333E-02 -1.029823E-01  0.000000E+00  0.000000E+00  0.000000E+00  0.000000E+00  0.000000E+00  0.000000E+00  3.138875E-01  3.640333E-02 -1.029823E-01  0.000000E+00  0.000000E+00  0.000000E+00
     471  3.158927E-01  3.380109E-02 -1.034788E-01  0.000000E+00  0.000000E+00  0.000000E+00  0.000000E+00  0.000000E+00  0.000000E+00  3.158927E-01  3.380109E-02 -1.034788E-01  0.000000E+00  0.000000E+00  0.000000E+00
     481  3.185715E-01  2.971478E-02 -1.031753E-01  0.000000E+00  0.000000E+00  0.000000E+00  0.000000E+00  0.000000E+00  0.000000E+00  3.185715E-01  2.971478E-02 -1.031753E-01  0.000000E+00  0.000000E+00  0.000000E+00
     491  3.213022E-01  2.456709E-02 -1.022881E-01  0.000000E+00  0.000000E+00  0.000000E+00  0.000000E+00  0.000000E+00  0.000000E+00  3.213022E-01  2.456709E-02 -1.022881E-01  0.000000E+00  0.000000E+00  0.000000E+00
     501  3.228348E-01  1.898341E-02 -1.009206E-01  0.000000E+00  0.000000E+00  0.000000E+00  0.000000E+00  0.000000E+00  0.000000E+00  3.228348E-01  1.898341E-02 -1.009206E-01  0.000000E+00  0.000000E+00  0.000000E+00
     511  3.221635E-01  1.357995E-02 -9.906968E-02  0.000000E+00  0.000000E+00  0.000000E+00  0.000000E+00  0.000000E+00  0.000000E+00  3.221635E-01  1.357995E-02 -9.906968E-02  0.000000E+00  0.000000E+00  0.000000E+00
     521  3.191768E-01  8.831572E-03 -9.672831E-02  0.000000E+00  0.000000E+00  0.000000E+00  0.000000E+00  0.000000E+00  0.000000E+00  3.191768E-01  8.831572E-03 -9.672831E-02  0.000000E+00  0.000000E+00  0.000000E+00
     531  3.145891E-01  5.022363E-03 -9.396663E-02  0.000000E+00  0.000000E+00  0.000000E+00  0.000000E+00  0.000000E+00  0.000000E+00  3.145891E-01  5.022363E-03 -9.396663E-02  0.000000E+00  0.000000E+00  0.000000E+00
     541  3.093562E-01  2.242395E-03 -9.092170E-02  0.000000E+00  0.000000E+00  0.000000E+00  0.000000E+00  0.000000E+00  0.000000E+00  3.093562E-01  2.242395E-03 -9.092170E-02  0.000000E+00  0.000000E+00  0.000000E+00
     551  3.041720E-01  4.160930E-04 -8.774175E-02  0.000000E+00  0.000000E+00  0.000000E+00  0.000000E+00  0.000000E+00  0.000000E+00  3.041720E-01  4.160930E-04 -8.774175E-02  0.000000E+00  0.000000E+00  0.000000E+00
     561  2.993667E-01 -6.381329E-04 -8.455900E-02  0.000000E+00  0.000000E+00  0.000000E+00  0.000000E+00  0.000000E+00  0.000000E+00  2.993667E-01 -6.381329E-04 -8.455900E-02  0.000000E+00  0.000000E+00  0.000000E+00
     571  2.950623E-01 -1.134483E-03 -8.149807E-02  0.000000E+00  0.000000E+00  0.000000E+00  0.000000E+00  0.000000E+00  0.000000E+00  2.950623E-01 -1.134483E-03 -8.149807E-02  0.000000E+00  0.000000E+00  0.000000E+00
     581  2.913071E-01 -1.262093E-03 -7.867954E-02  0.000000E+00  0.000000E+00  0.000000E+00  0.000000E+00  0.000000E+00  0.000000E+00  2.913071E-01 -1.262093E-03 -7.867954E-02  0.000000E+00  0.000000E+00  0.000000E+00
     591  2.880904E-01 -1.158698E-03 -7.620102E-02  0.000000E+00  0.000000E+00  0.000000E+00  0.000000E+00  0.000000E+00  0.000000E+00  2.880904E-01 -1.158698E-03 -7.620102E-02  0.000000E+00  0.000000E+00  0.000000E+00
     601  2.853209E-01 -9.100674E-04 -7.411660E-02  0.000000E+00  0.000000E+00  0.000000E+00  0.000000E+00  0.000000E+00  0.000000E+00  2.853209E-01 -9.100674E-04 -7.411660E-02  0.000000E+00  0.000000E+00  0.000000E+00
     611  2.828497E-01 -5.616887E-04 -7.243579E-02  0.000000E+00  0.000000E+00  0.000000E+00  0.000000E+00  0.000000E+00  0.000000E+00  2.828497E-01 -5.616887E-04 -7.243579E-02  0.000000E+00  0.000000E+00  0.000000E+00
     621  2.805353E-01 -1.335220E-04 -7.113955E-02  0.000000E+00  0.000000E+00  0.000000E+00  0.000000E+00  0.000000E+00  0.000000E+00  2.805353E-01 -1.335220E-04 -7.113955E-02  0.000000E+00  0.000000E+00  0.000000E+00
     631  2.783022E-01  3.663128E-04 -7.019882E-02  0.000000E+00  0.000000E+00  0.000000E+00  0.000000E+00  0.000000E+00  0.000000E+00  2.783022E-01  3.663128E-04 -7.019882E-02  0.000000E+00  0.000000E+00  0.000000E+00
     641  2.761634E-01  9.316623E-04 -6.958560E-02  0.000000E+00  0.000000E+00  0.000000E+00  0.000000E+00  0.000000E+00  0.000000E+00  2.761634E-01  9.316623E-04 -6.958560E-02  0.000000E+00  0.000000E+00  0.000000E+00
     651  2.742084E-01  1.554301E-03 -6.927585E-02  0.000000E+00  0.000000E+00  0.000000E+00  0.000000E+00  0.000000E+00  0.000000E+00  2.742084E-01  1.554301E-03 -6.927585E-02  0.000000E+00  0.000000E+00  0.000000E+00
     661  2.725682E-01  2.225503E-03 -6.924657E-02  0.000000E+00  0.000000E+00  0.000000E+00  0.000000E+00  0.000000E+00  0.000000E+00  2.725682E-01  2.225503E-03 -6.924657E-02  0.000000E+00  0.000000E+00  0.000000E+00
     671  2.713706E-01  2.940422E-03 -6.946940E-02  0.000000E+00  0.000000E+00  0.000000E+00  0.000000E+00  0.000000E+00  0.000000E+00  2.713706E-01  2.940422E-03 -6.946940E-02  0.000000E+00  0.000000E+00  0.000000E+00
     681  2.707013E-01  3.701513E-03 -6.990351E-02  0.000000E+00  0.000000E+00  0.000000E+00  0.000000E+00  0.000000E+00  0.000000E+00  2.707013E-01  3.701513E-03 -6.990351E-02  0.000000E+00  0.000000E+00  0.000000E+00
     691  2.705830E-01  4.518421E-03 -7.049201E-02  0.000000E+00  0.000000E+00  0.000000E+00  0.000000E+00  0.000000E+00  0.000000E+00  2.705830E-01  4.518421E-03 -7.049201E-02  0.000000E+00  0.000000E+00  0.000000E+00
     701  2.709819E-01  5.404008E-03 -7.116597E-02  0.000000E+00  0.000000E+00  0.000000E+00  0.000000E+00  0.000000E+00  0.000000E+00  2.709819E-01  5.404008E-03 -7.116597E-02  0.000000E+00  0.000000E+00  0.000000E+00
     711  2.718371E-01  6.368113E-03 -7.185639E-02  0.000000E+00  0.000000E+00  0.000000E+00  0.000000E+00  0.000000E+00  0.000000E+00  2.718371E-01  6.368113E-03 -7.185639E-02  0.000000E+00  0.000000E+00  0.000000E+00
     721  2.730934E-01  7.411483E-03 -7.251014E-02  0.000000E+00  0.000000E+00  0.000000E+00  0.000000E+00  0.000000E+00  0.000000E+00  2.730934E-01  7.411483E-03 -7.251014E-02  0.000000E+00  0.000000E+00  0.000000E+00
     731  2.747232E-01  8.521846E-03 -7.310235E-02  0.000000E+00  0.000000E+00  0.000000E+00  0.000000E+00  0.000000E+00  0.000000E+00  2.747232E-01  8.521846E-03 -7.310235E-02  0.000000E+00  0.000000E+00  0.000000E+00
     741  2.767252E-01  9.672945E-03 -7.363980E-02  0.000000E+00  0.000000E+00  0.000000E+00  0.000000E+00  0.000000E+00  0.000000E+00  2.767252E-01  9.672945E-03 -7.363980E-02  0.000000E+00  0.000000E+00  0.000000E+00
     751  2.791045E-01  1.082628E-02 -7.415419E-02  0.000000E+00  0.000000E+00  0.000000E+00  0.000000E+00  0.000000E+00  0.000000E+00  2.791045E-01  1.082628E-02 -7.415419E-02  0.000000E+00  0.000000E+00  0.000000E+00
     761  2.818496E-01  1.193471E-02 -7.468924E-02  0.000000E+00  0.000000E+00  0.000000E+00  0.000000E+00  0.000000E+00  0.000000E+00  2.818496E-01  1.193471E-02 -7.468924E-02  0.000000E+00  0.000000E+00  0.000000E+00
     771  2.849166E-01  1.294722E-02 -7.528726E-02  0.000000E+00  0.000000E+00  0.000000E+00  0.000000E+00  0.000000E+00  0.000000E+00  2.849166E-01  1.294722E-02 -7.528726E-02  0.000000E+00  0.000000E+00  0.000000E+00
     781  2.882297E-01  1.381422E-02 -7.597914E-02  0.000000E+00  0.000000E+00  0.000000E+00  0.000000E+00  0.000000E+00  0.000000E+00  2.882297E-01  1.381422E-02 -7.597914E-02  0.000000E+00  0.000000E+00  0.000000E+00
     791  2.916934E-01  1.449323E-02 -7.677905E-02  0.000000E+00  0.000000E+00  0.000000E+00  0.000000E+00  0.000000E+00  0.000000E+00  2.916934E-01  1.449323E-02 -7.677905E-02  0.000000E+00  0.000000E+00  0.000000E+00
     801  2.952088E-01  1.495413E-02 -7.768351E-02  0.000000E+00  0.000000E+00  0.000000E+00  0.000000E+00  0.000000E+00  0.000000E+00  2.952088E-01  1.495413E-02 -7.768351E-02  0.000000E+00  0.000000E+00  0.000000E+00
     811  2.986854E-01  1.518335E-02 -7.867373E-02  0.000000E+00  0.000000E+00  0.000000E+00  0.000000E+00  0.000000E+00  0.000000E+00  2.986854E-01  1.518335E-02 -7.867373E-02  0.000000E+00  0.000000E+00  0.000000E+00
     821  3.020467E-01  1.518606E-02 -7.972042E-02  0.000000E+00  0.000000E+00  0.000000E+00  0.000000E+00  0.000000E+00  0.000000E+00  3.020467E-01  1.518606E-02 -7.972042E-02  0.000000E+00  0.000000E+00  0.000000E+00
     831  3.052284E-01  1.498598E-02 -8.078947E-02  0.000000E+00  0.000000E+00  0.000000E+00  0.000000E+00  0.000000E+00  0.000000E+00  3.052284E-01  1.498598E-02 -8.078947E-02  0.000000E+00  0.000000E+00  0.000000E+00
     841  3.081734E-01  1.462242E-02 -8.184679E-02  0.000000E+00  0.000000E+00  0.000000E+00  0.000000E+00  0.000000E+00  0.000000E+00  3.081734E-01  1.462242E-02 -8.184679E-02  0.000000E+00  0.000000E+00  0.000000E+00
     851  3.108281E-01  1.414452E-02 -8.286102E-02  0.000000E+00  0.000000E+00  0.000000E+00  0.000000E+00  0.000000E+00  0.000000E+00  3.108281E-01  1.414452E-02 -8.286102E-02  0.000000E+00  0.000000E+00  0.000000E+00
     861  3.131421E-01  1.360330E-02 -8.380381E-02  0.000000E+00  0.000000E+00  0.000000E+00  0.000000E+00  0.000000E+00  0.000000E+00  3.131421E-01  1.360330E-02 -8.380381E-02  0.000000E+00  0.000000E+00  0.000000E+00
     871  3.150752E-01  1.304295E-02 -8.464889E-02  0.000000E+00  0.000000E+00  0.000000E+00  0.000000E+00  0.000000E+00  0.000000E+00  3.150752E-01  1.304295E-02 -8.464889E-02  0.000000E+00  0.000000E+00  0.000000E+00
     881  3.166093E-01  1.249355E-02 -8.537140E-02  0.000000E+00  0.000000E+00  0.000000E+00  0.000000E+00  0.000000E+00  0.000000E+00  3.166093E-01  1.249355E-02 -8.537140E-02  0.000000E+00  0.000000E+00  0.000000E+00
     891  3.177628E-01  1.196750E-02 -8.594908E-02  0.000000E+00  0.000000E+00  0.000000E+00  0.000000E+00  0.000000E+00  0.000000E+00  3.177628E-01  1.196750E-02 -8.594908E-02  0.000000E+00  0.000000E+00  0.000000E+00
     901  3.185987E-01  1.146079E-02 -8.636578E-02  0.000000E+00  0.000000E+00  0.000000E+00  0.000000E+00  0.000000E+00  0.000000E+00  3.185987E-01  1.146079E-02 -8.636578E-02  0.000000E+00  0.000000E+00  0.000000E+00
     911  3.192205E-01  1.095861E-02 -8.661650E-02  0.000000E+00  0.000000E+00  0.000000E+00  0.000000E+00  0.000000E+00  0.000000E+00  3.192205E-01  1.095861E-02 -8.661650E-02  0.000000E+00  0.000000E+00  0.000000E+00
     921  3.197499E-01  1.044314E-02 -8.671155E-02  0.000000E+00  0.000000E+00  0.000000E+00  0.000000E+00  0.000000E+00  0.000000E+00  3.197499E-01  1.044314E-02 -8.671155E-02  0.000000E+00  0.000000E+00  0.000000E+00
     931  3.202909E-01  9.900736E-03 -8.667735E-02  0.000000E+00  0.000000E+00  0.000000E+00  0.000000E+00  0.000000E+00  0.000000E+00  3.202909E-01  9.900736E-03 -8.667735E-02  0.000000E+00  0.000000E+00  0.000000E+00
     941  3.208931E-01  9.326635E-03 -8.655170E-02  0.000000E+00  0.000000E+00  0.000000E+00  0.000000E+00  0.000000E+00  0.000000E+00  3.208931E-01  9.326635E-03 -8.655170E-02  0.000000E+00  0.000000E+00  0.000000E+00
     951  3.215316E-01  8.726511E-03 -8.637428E-02  0.000000E+00  0.000000E+00  0.000000E+00  0.000000E+00  0.000000E+00  0.000000E+00  3.215316E-01  8.726511E-03 -8.637428E-02  0.000000E+00  0.000000E+00  0.000000E+00
     961  3.221152E-01  8.115812E-03 -8.617522E-02  0.000000E+00  0.000000E+00  0.000000E+00  0.000000E+00  0.000000E+00  0.000000E+00  3.221152E-01  8.115812E-03 -8.617522E-02  0.000000E+00  0.000000E+00  0.000000E+00
     971  3.225223E-01  7.517968E-03 -8.596664E-02  0.000000E+00  0.000000E+00  0.000000E+00  0.000000E+00  0.000000E+00  0.000000E+00  3.225223E-01  7.517968E-03 -8.596664E-02  0.000000E+00  0.000000E+00  0.000000E+00
     981  3.226477E-01  6.961954E-03 -8.574071E-02  0.000000E+00  0.000000E+00  0.000000E+00  0.000000E+00  0.000000E+00  0.000000E+00  3.226477E-01  6.961954E-03 -8.574071E-02  0.000000E+00  0.000000E+00  0.000000E+00
     991  3.224404E-01  6.478875E-03 -8.547538E-02  0.000000E+00  0.000000E+00  0.000000E+00  0.000000E+00  0.000000E+00  0.000000E+00  3.224404E-01  6.478875E-03 -8.547538E-02  0.000000E+00  0.000000E+00  0.000000E+00
    1001  3.219181E-01  6.097324E-03 -8.514555E-02  0.000000E+00  0.000000E+00  0.000000E+00  0.000000E+00  0.000000E+00  0.000000E+00  3.219181E-01  6.097324E-03 -8.514555E-02  0.000000E+00  0.000000E+00  0.000000E+00
    1011  3.211575E-01  5.838241E-03 -8.473533E-02  0.000000E+00  0.000000E+00  0.000000E+00  0.000000E+00  0.000000E+00  0.000000E+00  3.211575E-01  5.838241E-03 -8.473533E-02  0.000000E+00  0.000000E+00  0.000000E+00
    1021  3.202687E-01  5.710875E-03 -8.424672E-02  0.000000E+00  0.000000E+00  0.000000E+00  0.000000E+00  0.000000E+00  0.000000E+00  3.202687E-01  5.710875E-03 -8.424672E-02  0.000000E+00  0.000000E+00  0.000000E+00
    1031  3.193667E-01  5.711338E-03 -8.370194E-02  0.000000E+00  0.000000E+00  0.000000E+00  0.000000E+00  0.000000E+00  0.000000E+00  3.193667E-01  5.711338E-03 -8.370194E-02  0.000000E+00  0.000000E+00  0.000000E+00
    1041  3.185475E-01  5.824195E-03 -8.313868E-02  0.000000E+00  0.000000E+00  0.000000E+00  0.000000E+00  0.000000E+00  0.000000E+00  3.185475E-01  5.824195E-03 -8.313868E-02  0.000000E+00  0.000000E+00  0.000000E+00
    1051  3.178749E-01  6.026294E-03 -8.260104E-02  0.000000E+00  0.000000E+00  0.000000E+00  0.000000E+00  0.000000E+00  0.000000E+00  3.178749E-01  6.026294E-03 -8.260104E-02  0.000000E+00  0.000000E+00  0.000000E+00
    1061  3.173769E-01  6.291356E-03 -8.212949E-02  0.000000E+00  0.000000E+00  0.000000E+00  0.000000E+00  0.000000E+00  0.000000E+00  3.173769E-01  6.291356E-03 -8.212949E-02  0.000000E+00  0.000000E+00  0.000000E+00
    1071  3.170513E-01  6.594033E-03 -8.175346E-02  0.000000E+00  0.000000E+00  0.000000E+00  0.000000E+00  0.000000E+00  0.000000E+00  3.170513E-01  6.594033E-03 -8.175346E-02  0.000000E+00  0.000000E+00  0.000000E+00
    1081  3.168758E-01  6.912687E-03 -8.148790E-02  0.000000E+00  0.000000E+00  0.000000E+00  0.000000E+00  0.000000E+00  0.000000E+00  3.168758E-01  6.912687E-03 -8.148790E-02  0.000000E+00  0.000000E+00  0.000000E+00
    1091  3.168199E-01  7.230765E-03 -8.133379E-02  0.000000E+00  0.000000E+00  0.000000E+00  0.000000E+00  0.000000E+00  0.000000E+00  3.168199E-01  7.230765E-03 -8.133379E-02  0.000000E+00  0.000000E+00  0.000000E+00
    1101  3.168544E-01  7.536980E-03 -8.128107E-02  0.000000E+00  0.000000E+00  0.000000E+00  0.000000E+00  0.000000E+00  0.000000E+00  3.168544E-01  7.536980E-03 -8.128107E-02  0.000000E+00  0.000000E+00  0.000000E+00
    1111  3.169574E-01  7.824649E-03 -8.131250E-02  0.000000E+00  0.000000E+00  0.000000E+00  0.000000E+00  0.000000E+00  0.000000E+00  3.169574E-01  7.824649E-03 -8.131250E-02  0.000000E+00  0.000000E+00  0.000000E+00
    1121  3.171167E-01  8.090566E-03 -8.140730E-02  0.000000E+00  0.000000E+00  0.000000E+00  0.000000E+00  0.000000E+00  0.000000E+00  3.171167E-01  8.090566E-03 -8.140730E-02  0.000000E+00  0.000000E+00  0.000000E+00
    1131  3.173289E-01  8.333714E-03 -8.154418E-02  0.000000E+00  0.000000E+00  0.000000E+00  0.000000E+00  0.000000E+00  0.000000E+00  3.173289E-01  8.333714E-03 -8.154418E-02  0.000000E+00  0.000000E+00  0.000000E+00
    1141  3.175964E-01  8.554109E-03 -8.170360E-02  0.000000E+00  0.000000E+00  0.000000E+00  0.000000E+00  0.000000E+00  0.000000E+00  3.175964E-01  8.554109E-03 -8.170360E-02  0.000000E+00  0.000000E+00  0.000000E+00
    1151  3.179249E-01  8.751954E-03 -8.186967E-02  0.000000E+00  0.000000E+00  0.000000E+00  0.000000E+00  0.000000E+00  0.000000E+00  3.179249E-01  8.751954E-03 -8.186967E-02  0.000000E+00  0.000000E+00  0.000000E+00
    1161  3.183208E-01  8.927176E-03 -8.203160E-02  0.000000E+00  0.000000E+00  0.000000E+00  0.000000E+00  0.000000E+00  0.000000E+00  3.183208E-01  8.927176E-03 -8.203160E-02  0.000000E+00  0.000000E+00  0.000000E+00
    1171  3.187902E-01  9.079306E-03 -8.218452E-02  0.000000E+00  0.000000E+00  0.000000E+00  0.000000E+00  0.000000E+00  0.000000E+00  3.187902E-01  9.079306E-03 -8.218452E-02  0.000000E+00  0.000000E+00  0.000000E+00
    1181  3.193384E-01  9.207563E-03 -8.232940E-02  0.000000E+00  0.000000E+00  0.000000E+00  0.000000E+00  0.000000E+00  0.000000E+00  3.193384E-01  9.207563E-03 -8.232940E-02  0.000000E+00  0.000000E+00  0.000000E+00
    1191  3.199689E-01  9.310987E-03 -8.247193E-02  0.000000E+00  0.000000E+00  0.000000E+00  0.000000E+00  0.000000E+00  0.000000E+00  3.199689E-01  9.310987E-03 -8.247193E-02  0.000000E+00  0.000000E+00  0.000000E+00
    1201  3.206826E-01  9.388514E-03 -8.262036E-02  0.000000E+00  0.000000E+00  0.000000E+00  0.000000E+00  0.000000E+00  0.000000E+00  3.206826E-01  9.388514E-03 -8.262036E-02  0.000000E+00  0.000000E+00  0.000000E+00
    1211  3.214762E-01  9.438936E-03 -8.278300E-02  0.000000E+00  0.000000E+00  0.000000E+00  0.000000E+00  0.000000E+00  0.000000E+00  3.214762E-01  9.438936E-03 -8.278300E-02  0.000000E+00  0.000000E+00  0.000000E+00
    1221  3.223411E-01  9.460839E-03 -8.296584E-02  0.000000E+00  0.000000E+00  0.000000E+00  0.000000E+00  0.000000E+00  0.000000E+00  3.223411E-01  9.460839E-03 -8.296584E-02  0.000000E+00  0.000000E+00  0.000000E+00
    1231  3.232619E-01  9.452592E-03 -8.317097E-02  0.000000E+00  0.000000E+00  0.000000E+00  0.000000E+00  0.000000E+00  0.000000E+00  3.232619E-01  9.452592E-03 -8.317097E-02  0.000000E+00  0.000000E+00  0.000000E+00
    1241  3.242167E-01  9.412479E-03 -8.339580E-02  0.000000E+00  0.000000E+00  0.000000E+00  0.000000E+00  0.000000E+00  0.000000E+00  3.242167E-01  9.412479E-03 -8.339580E-02  0.000000E+00  0.000000E+00  0.000000E+00
    1251  3.251771E-01  9.339036E-03 -8.363306E-02  0.000000E+00  0.000000E+00  0.000000E+00  0.000000E+00  0.000000E+00  0.000000E+00  3.251771E-01  9.339036E-03 -8.363306E-02  0.000000E+00  0.000000E+00  0.000000E+00
    1261  3.261097E-01  9.231537E-03 -8.387144E-02  0.000000E+00  0.000000E+00  0.000000E+00  0.000000E+00  0.000000E+00  0.000000E+00  3.261097E-01  9.231537E-03 -8.387144E-02  0.000000E+00  0.000000E+00  0.000000E+00
    1271  3.269784E-01  9.090555E-03 -8.409676E-02  0.000000E+00  0.000000E+00  0.000000E+00  0.000000E+00  0.000000E+00  0.000000E+00  3.269784E-01  9.090555E-03 -8.409676E-02  0.000000E+00  0.000000E+00  0.000000E+00
    1281  3.277470E-01  8.918446E-03 -8.429374E-02  0.000000E+00  0.000000E+00  0.000000E+00  0.000000E+00  0.000000E+00  0.000000E+00  3.277470E-01  8.918446E-03 -8.429374E-02  0.000000E+00  0.000000E+00  0.000000E+00
    1291  3.283841E-01  8.719645E-03 -8.444824E-02  0.000000E+00  0.000000E+00  0.000000E+00  0.000000E+00  0.000000E+00  0.000000E+00  3.283841E-01  8.719645E-03 -8.444824E-02  0.000000E+00  0.000000E+00  0.000000E+00
    1301  3.288672E-01  8.500649E-03 -8.454991E-02  0.000000E+00  0.000000E+00  0.000000E+00  0.000000E+00  0.000000E+00  0.000000E+00  3.288672E-01  8.500649E-03 -8.454991E-02  0.000000E+00  0.000000E+00  0.000000E+00
    1311  3.291875E-01  8.269651E-03 -8.459444E-02  0.000000E+00  0.000000E+00  0.000000E+00  0.000000E+00  0.000000E+00  0.000000E+00  3.291875E-01  8.269651E-03 -8.459444E-02  0.000000E+00  0.000000E+00  0.000000E+00
    1321  3.293525E-01  8.035851E-03 -8.458500E-02  0.000000E+00  0.000000E+00  0.000000E+00  0.000000E+00  0.000000E+00  0.000000E+00  3.293525E-01  8.035851E-03 -8.458500E-02  0.000000E+00  0.000000E+00  0.000000E+00
    1331  3.293869E-01  7.808588E-03 -8.453237E-02  0.000000E+00  0.000000E+00  0.000000E+00  0.000000E+00  0.000000E+00  0.000000E+00  3.293869E-01  7.808588E-03 -8.453237E-02  0.000000E+00  0.000000E+00  0.000000E+00
    1341  3.293309E-01  7.596468E-03 -8.445372E-02  0.000000E+00  0.000000E+00  0.000000E+00  0.000000E+00  0.000000E+00  0.000000E+00  3.293309E-01  7.596468E-03 -8.445372E-02  0.000000E+00  0.000000E+00  0.000000E+00
    1351  3.292364E-01  7.406708E-03 -8.437063E-02  0.000000E+00  0.000000E+00  0.000000E+00  0.000000E+00  0.000000E+00  0.000000E+00  3.292364E-01  7.406708E-03 -8.437063E-02  0.000000E+00  0.000000E+00  0.000000E+00