 variables = x,y,"-cp"
 zone t="Cp_jmin_000"
  0.999901036689427      -1.438201154477405E-005 -0.146463699202672     
  0.999694849639698      -4.433878394527676E-005 -0.144890141678513     
  0.999471457044767      -7.678516570916535E-005 -0.144311338464000     
  0.999229433009151      -1.119351872218389E-004 -0.143391191718941     
  0.998967231722420      -1.499986690511435E-004 -0.142610401409330     
  0.998683181823514      -1.912078565131687E-004 -0.141758991275827     
  0.998375479381158      -2.358394108184670E-004 -0.140928581138311     
  0.998042172631888      -2.841848128453211E-004 -0.140076713321446     
  0.997681144537264      -3.365111952199675E-004 -0.139210016332649     
  0.997290110610486      -3.931333799421472E-004 -0.138340748233954     
  0.996866609714277      -4.544436015688823E-004 -0.137444312707988     
  0.996407979180273      -5.208395406005970E-004 -0.136526570338811     
  0.995911330769309      -5.926648277141595E-004 -0.135596937945737     
  0.995373553322796      -6.703413130624667E-004 -0.134630340887167     
  0.994791302447734      -7.544191472102226E-004 -0.133642563603804     
  0.994160961879245      -8.454387107432190E-004 -0.132609746143972     
  0.993478605833100      -9.438069532774860E-004 -0.131551039008022     
  0.992740024637728      -1.050120877354764E-003 -0.130446664963147     
  0.991940704001005      -1.165177846065212E-003 -0.129285646599864     
  0.991075739240897      -1.289542745202006E-003 -0.128081038725382     
  0.990139854226810      -1.423850871937378E-003 -0.126816583739299     
  0.989127407965195      -1.569033645803364E-003 -0.125477484013879     
  0.988032309338146      -1.725912456346903E-003 -0.124072755297044     
  0.986847988777956      -1.895197373064347E-003 -0.122590215904990     
  0.985567445047636      -2.078017021053428E-003 -0.121010212152758     
  0.984183134935553      -2.275355794470929E-003 -0.119343909160715     
  0.982686950651476      -2.488111897379464E-003 -0.117576233169962     
  0.981070283856444      -2.717765049792072E-003 -0.115673880708784     
  0.979323822809217      -2.965169206971251E-003 -0.113692292604048     
  0.977437674783382      -3.231638924822782E-003 -0.111537333370659     
  0.975401311643326      -3.518778878205071E-003 -0.109282022242249     
  0.973203434186103      -3.827740415357508E-003 -0.106860727311919     
  0.970832089848265      -4.160252963783775E-003 -0.104282264751705     
  0.968274510352013      -4.517656241893913E-003 -0.101575744354529     
  0.965517205518267      -4.901735795903623E-003 -9.864096814700618E-002
  0.962545856985965      -5.314096152677030E-003 -9.561115285967681E-002
  0.959345348602296      -5.756486401209208E-003 -9.233165113100705E-002
  0.955899768014636      -6.230865535969582E-003 -8.890483331092502E-002
  0.952192326065171      -6.738827172269944E-003 -8.531188591214445E-002
  0.948205528126510      -7.282785808824490E-003 -8.145361881029567E-002
  0.943920927438716      -7.864031637407815E-003 -7.752124076996836E-002
  0.939319436050898      -8.484788640032118E-003 -7.330573713545041E-002
  0.934381256447932      -9.147375810369188E-003 -6.894653685661067E-002
  0.929085760411976      -9.852845123685342E-003 -6.444403869693360E-002
  0.923411957576804      -1.060387854510685E-002 -5.971830782911791E-002
  0.917338301331815      -1.140259645894358E-002 -5.481944494747282E-002
  0.910842672091623      -1.224945780384571E-002 -4.985616630429002E-002
  0.903902934488028      -1.314637863285233E-002 -4.467635620347910E-002
  0.896496996320902      -1.409587524212469E-002 -3.940515718873128E-002
  0.888602757596857      -1.509910284169805E-002 -3.398353315213321E-002
  0.880198410926427      -1.615632802232875E-002 -2.847611769027436E-002
  0.871262801958185      -1.726768552580072E-002 -2.293065669662342E-002
  0.861775847922212      -1.843419903075212E-002 -1.728771098706661E-002
  0.851718685983071      -1.965640415779817E-002 -1.159155066770756E-002
  0.841073968747992      -2.093388515101843E-002 -5.880408773021539E-003
  0.829826304610176      -2.226578772895235E-002 -1.094350821717605E-004
  0.817962649142221      -2.365078170607101E-002  5.656508919462011E-003
  0.805472711125871      -2.508702431525892E-002  1.141950977832362E-002
  0.792349366039704      -2.657212500253204E-002  1.719835834552019E-002
  0.778589068327765      -2.810311264980000E-002  2.294409979650425E-002
  0.764192252334772      -2.967640636653989E-002  2.867269873287115E-002
  0.749163710505883      -3.128779116418917E-002  3.444692424797857E-002
  0.733512786417905      -3.293094272277818E-002  4.007606697175414E-002
  0.717253865540819      -3.459924250550806E-002  4.569514605787917E-002
  0.700406774779677      -3.628742751082444E-002  5.127875994359932E-002
  0.682996682429761      -3.798917514195270E-002  5.679806689685507E-002
  0.665054153964236      -3.969693207546836E-002  6.241184465818295E-002
  0.646614951929252      -4.139990135340135E-002  6.782884834103098E-002
  0.627720189103518      -4.308704309437720E-002  7.316833162720293E-002
  0.608416437015914      -4.475112151366507E-002  7.844153544700982E-002
  0.588754938035307      -4.638417730094366E-002  8.382770582866428E-002
  0.568790597199374      -4.797059236360566E-002  8.876369960092689E-002
  0.548582355683681      -4.949860753708847E-002  9.367442845481011E-002
  0.528192702380974      -5.096299098463154E-002  9.851329168833556E-002
  0.507685801203611      -5.235007411813461E-002  0.103037578209945     
  0.487127298884429      -5.364551210604034E-002  0.107144001544660     
  0.466584070280482      -5.484365745587879E-002  0.111109351470707     
  0.446122642496232      -5.593656205053190E-002  0.114771367794665     
  0.425808112005379      -5.690873480176196E-002  0.117588590241258     
  0.405704258511259      -5.775538187230993E-002  0.120071244315480     
  0.385872439408809      -5.847730301479206E-002  0.122342021327246     
  0.366370107700743      -5.905943927397766E-002  0.123171492714730     
  0.347251138959864      -5.949678417017554E-002  0.123687968619471     
  0.328565272432459      -5.979681865774525E-002  0.123179494193123     
  0.310357084272810      -5.995936260311839E-002  0.122325580146574     
  0.292666038436822      -5.997424577553107E-002  0.119646131699545     
  0.275526342270472      -5.984333551911108E-002  0.116391082257620     
  0.258966719358373      -5.958007639650599E-002  0.111888426743254     
  0.243010402247484      -5.918846746271154E-002  0.106351340541095     
  0.227675313889136      -5.867348200350751E-002  9.962779614281869E-002
  0.212974332671116      -5.803948207164759E-002  9.177739592363032E-002
  0.198915682585232      -5.728881518763976E-002  8.232048470395315E-002
  0.185502688789305      -5.643128510725968E-002  7.182869512739565E-002
  0.172734217488895      -5.548008027404536E-002  6.004850601630718E-002
  0.160605523034368      -5.444353102461935E-002  4.712840677445196E-002
  0.149108410853820      -5.333022867657388E-002  3.312009568114527E-002
  0.138231637096210      -5.214893011788994E-002  1.806792466212670E-002
  0.127961302815210      -5.090847827795564E-002  2.106689684766350E-003
  0.118281233308736      -4.961774151957353E-002 -1.472600089094778E-002
  0.109173334039380      -4.828557488582750E-002 -3.202688234063977E-002
  0.100619352473058      -4.691268280442117E-002 -5.039840537658469E-002
  9.259932167578322E-002 -4.550404986317674E-002 -6.902494905398360E-002
  8.509082500320453E-002 -4.407374508092853E-002 -8.803684200911732E-002
  7.807129914897593E-002 -4.263126142393887E-002 -0.107131154002334     
  7.151779012549453E-002 -4.118490260629624E-002 -0.126094379581446     
  6.540868179836479E-002 -3.973604924040557E-002 -0.144847424935240     
  5.972538454240184E-002 -3.827601692707851E-002 -0.163908160196761     
  5.444447767232785E-002 -3.681652512757678E-002 -0.182210253548958     
  4.953923882882172E-002 -3.537963756867354E-002 -0.199458131767805     
  4.499484238040496E-002 -3.394792731793951E-002 -0.217109675472179     
  4.079283231808140E-002 -3.251979480296933E-002 -0.233711881182817     
  3.690382155082184E-002 -3.112647535564832E-002 -0.248327627440539     
  3.331897338690382E-002 -2.974308438615302E-002 -0.264347529673289     
  3.001992853400259E-002 -2.837272662995695E-002 -0.277294977833347     
  2.698146395291323E-002 -2.703744387458767E-002 -0.290373317493027     
  2.419521817029124E-002 -2.572017851393302E-002 -0.302533768066328     
  2.163886985022512E-002 -2.443602799853272E-002 -0.312472149967142     
  1.930380911958252E-002 -2.317528402219218E-002 -0.323389934384438     
  1.717159457934081E-002 -2.194557498080656E-002 -0.330733663605129     
  1.523173633144437E-002 -2.074551827938654E-002 -0.339760431493150     
  1.347124070536088E-002 -1.957452573790441E-002 -0.345296247141341     
  1.187502616326441E-002 -1.844066995672238E-002 -0.351703169466605     
  1.043809851605715E-002 -1.733430489920384E-002 -0.356314768820325     
  9.136461311411770E-003 -1.627385726785402E-002 -0.359544784123720     
  7.977160035893105E-003 -1.524010552122804E-002 -0.363568035473537     
  6.935962262663908E-003 -1.424726689067101E-002 -0.364505222571707     
  6.007649260728942E-003 -1.329584607266419E-002 -0.366595890742312     
  5.197942384246534E-003 -1.236975213659182E-002 -0.367218329732047     
  4.463145226993981E-003 -1.150015319028689E-002 -0.366439172411601     
  3.822031769330381E-003 -1.066772931847954E-002 -0.366243426437628     
  3.279846165163414E-003 -9.860750285176443E-003 -0.364814336771929     
  2.790912267504275E-003 -9.105798252013814E-003 -0.362749605452764     
  2.350526001678399E-003 -8.401803031976705E-003 -0.359878114212223     
  1.991903883693968E-003 -7.724795289140971E-003 -0.357244846363331     
  1.697401034548296E-003 -7.079089817105916E-003 -0.353668759527190     
  1.425328203884413E-003 -6.482562768008258E-003 -0.349760486701080     
  1.174003083752484E-003 -5.931525636110130E-003 -0.344947580906922     
  9.709265006891954E-004 -5.412089117667584E-003 -0.340072243276831     
  8.238867579573039E-004 -4.917756269746139E-003 -0.335023316625118     
  6.995521017549855E-004 -4.457114441382819E-003 -0.329534198610007     
  5.847380853111206E-004 -4.031745199436594E-003 -0.323616755450461     
  4.787230618852334E-004 -3.638974947630218E-003 -0.317275923704427     
  3.808389906723164E-004 -3.276328691885235E-003 -0.310459160135899     
  2.904676175868870E-004 -2.941515890682194E-003 -0.303612075426115     
  2.333762907558157E-004 -2.627730745651859E-003 -0.296117597227695     
  2.071227178881418E-004 -2.333353192432223E-003 -0.289166321262529     
  1.829994274494817E-004 -2.061590841441674E-003 -0.281627173980468     
  1.607319663670115E-004 -1.810735445501646E-003 -0.273860327145452     
  1.401783810204282E-004 -1.579187817730839E-003 -0.265876994938058     
  1.212074545433595E-004 -1.365469726784322E-003 -0.257620955851932     
  1.036979128065108E-004 -1.168214951806617E-003 -0.249089612148210     
  8.753768641556192E-005 -9.861609684275415E-004 -0.240437983408504     
  7.262322518397646E-005 -8.181412259154610E-004 -0.231492311673544     
  5.885886169931798E-005 -6.630779773923135E-004 -0.222381432104792     
  4.615622076353798E-005 -5.199756268522191E-004 -0.213114892142437     
  3.443367165412159E-005 -3.879145585791283E-004 -0.203586167232833     
  2.361582031673581E-005 -2.660454164071133E-004 -0.193990821003978     
  1.363303875945299E-005 -1.535838020872810E-004 -0.184119503174974     
  4.421029079937355E-006 -4.980536380928741E-005 -0.174274295330020     
  4.421029079937355E-006  4.980536380925416E-005 -0.163988896600388     
  1.363303875945299E-005  1.535838020872856E-004 -0.154226019073108     
  2.361582031673581E-005  2.660454164071646E-004 -0.143827397908713     
  3.443367165412159E-005  3.879145585791394E-004 -0.133283166557154     
  4.615622076353798E-005  5.199756268521838E-004 -0.122266841547755     
  5.885886169942900E-005  6.630779773923243E-004 -0.110958702978607     
  7.262322518408748E-005  8.181412259154934E-004 -9.922330800117329E-002
  8.753768641556192E-005  9.861609684275543E-004 -8.699216421415201E-002
  1.036979128065108E-004  1.168214951806632E-003 -7.437914692976433E-002
  1.212074545433595E-004  1.365469726784401E-003 -6.116353104220984E-002
  1.401783810204282E-004  1.579187817730990E-003 -4.740251793120809E-002
  1.607319663670115E-004  1.810735445501831E-003 -3.304992665532769E-002
  1.829994274494817E-004  2.061590841441825E-003 -1.801991891699073E-002
  2.071227178881418E-004  2.333353192432302E-003 -2.151195261116179E-003
  2.333762907559267E-004  2.627730745651989E-003  1.399804146522587E-002
  2.904676175869980E-004  2.941515890682324E-003  3.161998218968387E-002
  3.808389906723164E-004  3.276328691885331E-003  4.766078691782183E-002
  4.787230618852334E-004  3.638974947630303E-003  6.551912697180340E-002
  5.847380853111206E-004  4.031745199436690E-003  8.397338075744587E-002
  6.995521017549855E-004  4.457114441382969E-003  0.103489173991543     
  8.238867579573039E-004  4.917756269746217E-003  0.124138013889159     
  9.709265006891954E-004  5.412089117667598E-003  0.145560928027627     
  1.174003083752484E-003  5.931525636110182E-003  0.167959332268070     
  1.425328203884413E-003  6.482562768008291E-003  0.189057500466416     
  1.697401034548296E-003  7.079089817105910E-003  0.212646947660970     
  1.991903883693968E-003  7.724795289140960E-003  0.236444003110636     
  2.350526001678399E-003  8.401803031976737E-003  0.262939542482891     
  2.790912267504275E-003  9.105798252013898E-003  0.286901944128970     
  3.279846165163414E-003  9.860750285176526E-003  0.312938464537345     
  3.822031769330492E-003  1.066772931847965E-002  0.339666202401883     
  4.463145226994203E-003  1.150015319028706E-002  0.368295225943725     
  5.197942384246756E-003  1.236975213659205E-002  0.394133606127264     
  6.007649260729164E-003  1.329584607266442E-002  0.422608499518976     
  6.935962262664130E-003  1.424726689067121E-002  0.452484546699600     
  7.977160035893327E-003  1.524010552122821E-002  0.478582959259696     
  9.136461311411881E-003  1.627385726785411E-002  0.509541764037877     
  1.043809851605715E-002  1.733430489920386E-002  0.536859595980939     
  1.187502616326441E-002  1.844066995672239E-002  0.565400260048737     
  1.347124070536088E-002  1.957452573790444E-002  0.594824427339886     
  1.523173633144437E-002  2.074551827938657E-002  0.620804530774932     
  1.717159457934081E-002  2.194557498080656E-002  0.650475275166429     
  1.930380911958240E-002  2.317528402219212E-002  0.674562756520798     
  2.163886985022490E-002  2.443602799853265E-002  0.702497411414727     
  2.419521817029113E-002  2.572017851393298E-002  0.725307979121494     
  2.698146395291312E-002  2.703744387458762E-002  0.749669251020866     
  3.001992853400237E-002  2.837272662995684E-002  0.771754476031715     
  3.331897338690348E-002  2.974308438615288E-002  0.790993769127356     
  3.690382155082150E-002  3.112647535564820E-002  0.811861295652745     
  4.079283231808117E-002  3.251979480296922E-002  0.826568956443588     
  4.499484238040474E-002  3.394792731793937E-002  0.841941941975411     
  4.953923882882139E-002  3.537963756867342E-002  0.855209157661873     
  5.444447767232741E-002  3.681652512757666E-002  0.864339739402831     
  5.972538454240139E-002  3.827601692707838E-002  0.872489996874171     
  6.540868179836423E-002  3.973604924040544E-002  0.878493599244574     
  7.151779012549386E-002  4.118490260629609E-002  0.880934857191641     
  7.807129914897515E-002  4.263126142393869E-002  0.881287187227980     
  8.509082500320364E-002  4.407374508092836E-002  0.879346538868969     
  9.259932167578233E-002  4.550404986317659E-002  0.875180006678527     
  0.100619352473057       4.691268280442101E-002  0.868564738947211     
  0.109173334039379       4.828557488582733E-002  0.859771519016435     
  0.118281233308735       4.961774151957337E-002  0.848153554378161     
  0.127961302815209       5.090847827795549E-002  0.834856166369214     
  0.138231637096209       5.214893011788979E-002  0.819623676445778     
  0.149108410853819       5.333022867657373E-002  0.802801483175277     
  0.160605523034367       5.444353102461922E-002  0.784403088943985     
  0.172734217488894       5.548008027404523E-002  0.764735571872198     
  0.185502688789304       5.643128510725957E-002  0.743968457150032     
  0.198915682585230       5.728881518763965E-002  0.722158666950376     
  0.212974332671114       5.803948207164750E-002  0.699810587133493     
  0.227675313889134       5.867348200350744E-002  0.676370607456429     
  0.243010402247482       5.918846746271147E-002  0.652638681648156     
  0.258966719358371       5.958007639650598E-002  0.628639001490774     
  0.275526342270470       5.984333551911108E-002  0.604639864029274     
  0.292666038436820       5.997424577553106E-002  0.580473840890997     
  0.310357084272807       5.995936260311840E-002  0.556862109160107     
  0.328565272432456       5.979681865774529E-002  0.532431807337915     
  0.347251138959861       5.949678417017558E-002  0.508881688387180     
  0.366370107700740       5.905943927397773E-002  0.485397057904281     
  0.385872439408806       5.847730301479220E-002  0.462778522222138     
  0.405704258511256       5.775538187231009E-002  0.439732770853734     
  0.425808112005375       5.690873480176212E-002  0.417574987218944     
  0.446122642496228       5.593656205053207E-002  0.396122613963893     
  0.466584070280478       5.484365745587899E-002  0.374744999663510     
  0.487127298884425       5.364551210604056E-002  0.354011895397043     
  0.507685801203607       5.235007411813486E-002  0.334019289473340     
  0.528192702380970       5.096299098463181E-002  0.314418620689244     
  0.548582355683677       4.949860753708876E-002  0.295316658395608     
  0.568790597199370       4.797059236360596E-002  0.276866386526029     
  0.588754938035303       4.638417730094397E-002  0.259092134315355     
  0.608416437015910       4.475112151366539E-002  0.241575808943454     
  0.627720189103514       4.308704309437753E-002  0.224763897304076     
  0.646614951929248       4.139990135340171E-002  0.208505762562438     
  0.665054153964232       3.969693207546873E-002  0.192760781177241     
  0.682996682429757       3.798917514195309E-002  0.177355224865716     
  0.700406774779673       3.628742751082484E-002  0.162587976301360     
  0.717253865540815       3.459924250550842E-002  0.148254021696026     
  0.733512786417902       3.293094272277854E-002  0.134356689946893     
  0.749163710505879       3.128779116418955E-002  0.120961922444142     
  0.764192252334769       2.967640636654027E-002  0.107855335394266     
  0.778589068327761       2.810311264980035E-002  9.523996884653818E-002
  0.792349366039701       2.657212500253238E-002  8.304679577410012E-002
  0.805472711125868       2.508702431525927E-002  7.121072728315325E-002
  0.817962649142218       2.365078170607138E-002  5.980816183653448E-002
  0.829826304610173       2.226578772895270E-002  4.878658045861628E-002
  0.841073968747989       2.093388515101875E-002  3.811762239034389E-002
  0.851718685983068       1.965640415779848E-002  2.789318907644156E-002
  0.861775847922210       1.843419903075244E-002  1.800934944446153E-002
  0.871262801958183       1.726768552580103E-002  8.510788014218340E-003
  0.880198410926424       1.615632802232904E-002 -5.597805835826364E-004
  0.888602757596855       1.509910284169834E-002 -9.302163460749746E-003
  0.896496996320900       1.409587524212496E-002 -1.765520349465355E-002
  0.903902934488026       1.314637863285260E-002 -2.559284476617174E-002
  0.910842672091621       1.224945780384598E-002 -3.319631245307209E-002
  0.917338301331813       1.140259645894383E-002 -4.033330789736578E-002
  0.923411957576802       1.060387854510708E-002 -4.717484139742245E-002
  0.929085760411975       9.852845123685578E-003 -5.364389220684407E-002
  0.934381256447930       9.147375810369410E-003 -5.969002052707895E-002
  0.939319436050896       8.484788640032329E-003 -6.542182638326866E-002
  0.943920927438715       7.864031637408016E-003 -7.083353479066323E-002
  0.948205528126508       7.282785808824687E-003 -7.582723177436446E-002
  0.952192326065169       6.738827172270148E-003 -8.059753075240961E-002
  0.955899768014634       6.230865535969765E-003 -8.498552106691770E-002
  0.959345348602295       5.756486401209352E-003 -8.909542420543870E-002
  0.962545856985963       5.314096152677136E-003 -9.295802332490144E-002
  0.965517205518266       4.901735795903727E-003 -9.648329037165837E-002
  0.968274510352011       4.517656241894034E-003 -9.982912406464450E-002
  0.970832089848264       4.160252963783896E-003 -0.102886332921175     
  0.973203434186103       3.827740415357626E-003 -0.105743541387045     
  0.975401311643325       3.518778878205195E-003 -0.108397882988140     
  0.977437674783382       3.231638924822898E-003 -0.110837574474119     
  0.979323822809216       2.965169206971359E-003 -0.113131613576475     
  0.981070283856443       2.717765049792180E-003 -0.115228974809026     
  0.982686950651475       2.488111897379563E-003 -0.117202718023787     
  0.984183134935553       2.275355794471010E-003 -0.119026583448235     
  0.985567445047635       2.078017021053502E-003 -0.120724472114870     
  0.986847988777955       1.895197373064412E-003 -0.122316628777757     
  0.988032309338146       1.725912456346964E-003 -0.123798693966578     
  0.989127407965195       1.569033645803426E-003 -0.125188756047282     
  0.990139854226809       1.423850871937428E-003 -0.126502465902908     
  0.991075739240897       1.289542745202041E-003 -0.127732641182870     
  0.991940704001005       1.165177846065241E-003 -0.128898731494185     
  0.992740024637728       1.050120877354804E-003 -0.130010240781654     
  0.993478605833100       9.438069532775259E-004 -0.131061739987705     
  0.994160961879245       8.454387107432533E-004 -0.132068930430811     
  0.994791302447733       7.544191472102573E-004 -0.133036830891003     
  0.995373553322796       6.703413130624964E-004 -0.133963102942027     
  0.995911330769309       5.926648277141797E-004 -0.134866290254622     
  0.996407979180273       5.208395406006104E-004 -0.135725273956953     
  0.996866609714277       4.544436015688968E-004 -0.136575072961270     
  0.997290110610486       3.931333799421647E-004 -0.137401078830718     
  0.997681144537264       3.365111952199938E-004 -0.138190567347295     
  0.998042172631888       2.841848128453584E-004 -0.138995733603178     
  0.998375479381157       2.358394108185026E-004 -0.139744292710667     
  0.998683181823514       1.912078565131975E-004 -0.140535552856412     
  0.998967231722420       1.499986690511828E-004 -0.141100452046328     
  0.999229433009151       1.119351872218831E-004 -0.141836089728647     
  0.999471457044767       7.678516570920785E-005 -0.140069322838543     
  0.999694849639698       4.433878394532627E-005 -0.146507339881556     
  0.999901036689427       1.438201154480178E-005 -0.146039810568630     
