 variables=iter,pressure
 zone t="error", f=point
       1,  0.000000
      11, -0.149165
      21, -0.248475
      31, -0.265245
      41, -0.250873
      51, -0.237786
      61, -0.249185
      71, -0.271343
      81, -0.279587
      91, -0.279263
     101, -0.279696
     111, -0.279848
     121, -0.284289
     131, -0.290552
     141, -0.293506
     151, -0.294246
     161, -0.297577
     171, -0.306851
     181, -0.322157
     191, -0.341396
     201, -0.361695
     211, -0.380765
     221, -0.397570
     231, -0.411769
     241, -0.422996
     251, -0.431099
     261, -0.436446
     271, -0.439856
     281, -0.442490
     291, -0.445533
     301, -0.449656
     311, -0.454854
     321, -0.460741
     331, -0.466875
     341, -0.473039
     351, -0.479418
     361, -0.486032
     371, -0.491750
     381, -0.494982
     391, -0.496740
     401, -0.501400
     411, -0.511626
     421, -0.524315
     431, -0.534779
     441, -0.542204
     451, -0.548620
     461, -0.555673
     471, -0.563561
     481, -0.571662
     491, -0.579365
     501, -0.586499
     511, -0.593439
     521, -0.600783
     531, -0.608782
     541, -0.617004
     551, -0.624645
     561, -0.631518
     571, -0.638541
     581, -0.646538
     591, -0.655031
     601, -0.663016
     611, -0.670276
     621, -0.677268
     631, -0.684413
     641, -0.691893
     651, -0.699686
     661, -0.707619
     671, -0.715440
     681, -0.722933
     691, -0.729979
     701, -0.736557
     711, -0.742689
     721, -0.748441
     731, -0.753966
     741, -0.759518
     751, -0.765386
     761, -0.771769
     771, -0.778690
     781, -0.785995
     791, -0.793402
     801, -0.800538
     811, -0.807011
     821, -0.812596
     831, -0.817458
     841, -0.822262
     851, -0.827993
     861, -0.835370
     871, -0.844185
     881, -0.853315
     891, -0.861627
     901, -0.868716
     911, -0.874467
     921, -0.878312
     931, -0.879554
     941, -0.878490
     951, -0.876902
     961, -0.877199
     971, -0.880901
     981, -0.887713
     991, -0.895891
    1001, -0.903510
    1011, -0.909594
    1021, -0.914296
    1031, -0.918387
    1041, -0.922687
    1051, -0.927709
    1061, -0.933472
    1071, -0.939489
    1081, -0.945015
    1091, -0.949476
    1101, -0.952783
    1111, -0.955255
    1121, -0.957263
    1131, -0.958945
    1141, -0.960226
    1151, -0.961079
    1161, -0.961753
    1171, -0.962748
    1181, -0.964453
    1191, -0.966705
    1201, -0.968667
    1211, -0.969379
    1221, -0.968696
    1231, -0.967789
    1241, -0.968629
    1251, -0.972896
    1261, -0.981060
    1271, -0.991936
    1281, -1.002679
    1291, -1.009472
    1301, -1.009198
    1311, -1.001422
    1321, -0.988837
    1331, -0.975613
    1341, -0.965319
    1351, -0.959919
    1361, -0.959753
    1371, -0.963883
    1381, -0.970451
    1391, -0.977099
    1401, -0.981580
    1411, -0.982428
    1421, -0.979375
    1431, -0.973426
    1441, -0.966617
    1451, -0.961418
    1461, -0.959612
    1471, -0.960934
    1481, -0.962330
    1491, -0.959331
    1501, -0.949841
    1511, -0.936772
    1521, -0.925864
    1531, -0.921207
    1541, -0.922804
    1551, -0.927204
    1561, -0.930530
    1571, -0.931847
    1581, -0.933637
    1591, -0.938850
    1601, -0.947471
    1611, -0.955072
    1621, -0.954764
    1631, -0.942677
    1641, -0.921944
    1651, -0.899960
    1661, -0.883014
    1671, -0.873994
    1681, -0.872906
    1691, -0.878167
    1701, -0.887625
    1711, -0.899124
    1721, -0.910668
    1731, -0.920402
    1741, -0.926555
    1751, -0.927575
    1761, -0.922633
    1771, -0.912267
    1781, -0.898493
    1791, -0.884096
    1801, -0.871668
    1811, -0.863137
    1821, -0.859815
    1831, -0.862578
    1841, -0.871771
    1851, -0.886746
    1861, -0.905272
    1871, -0.923314
    1881, -0.935909
    1891, -0.939357
    1901, -0.933236
    1911, -0.920263
    1921, -0.904344
    1931, -0.888950
    1941, -0.876663
    1951, -0.869360
    1961, -0.868412
    1971, -0.874716
    1981, -0.888534
    1991, -0.909214
    2001, -0.934786
    2011, -0.961565
    2021, -0.984254
    2031, -0.997327
    2041, -0.997685
    2051, -0.986525
    2061, -0.968335
    2071, -0.948245
    2081, -0.930180
    2091, -0.916438
    2101, -0.908001
    2111, -0.904997
    2121, -0.907089
    2131, -0.913778
    2141, -0.924586
    2151, -0.939136
    2161, -0.957098
    2171, -0.977979
    2181, -1.000730
    2191, -1.023209
    2201, -1.041825
    2211, -1.052070
    2221, -1.050515
    2231, -1.037203
    2241, -1.015966
    2251, -0.992267
    2261, -0.970891
    2271, -0.955034
    2281, -0.946466
    2291, -0.945978
    2301, -0.953718
    2311, -0.969322
    2321, -0.991807
    2331, -1.019265
    2341, -1.048490
    2351, -1.074881
    2361, -1.093272
    2371, -1.100023
    2381, -1.095092
    2391, -1.081984
    2401, -1.065640
    2411, -1.050367
    2421, -1.038979
    2431, -1.032807
    2441, -1.031993
    2451, -1.035830
    2461, -1.043123
    2471, -1.052594
    2481, -1.063226
    2491, -1.074405
    2501, -1.085763
    2511, -1.096824
    2521, -1.106737
    2531, -1.114317
    2541, -1.118449
    2551, -1.118621
    2561, -1.115221
    2571, -1.109395
    2581, -1.102649
    2591, -1.096476
    2601, -1.092160
    2611, -1.090697
    2621, -1.092764
    2631, -1.098681
    2641, -1.108349
    2651, -1.121165
    2661, -1.135930
    2671, -1.150787
    2681, -1.163335
    2691, -1.171080
    2701, -1.172277
    2711, -1.166762
    2721, -1.156142
    2731, -1.143169
    2741, -1.130788
    2751, -1.121437
    2761, -1.116766
    2771, -1.117608
    2781, -1.124050
    2791, -1.135475
    2801, -1.150568
    2811, -1.167318
    2821, -1.183138
    2831, -1.195279
    2841, -1.201601
    2851, -1.201391
    2861, -1.195643
    2871, -1.186544
    2881, -1.176562
    2891, -1.167727
    2901, -1.161358
    2911, -1.158107
    2921, -1.158131
    2931, -1.161252
    2941, -1.167025
    2951, -1.174733
    2961, -1.183348
    2971, -1.191583
    2981, -1.198119
    2991, -1.201988
    3001, -1.202944
    3011, -1.201558
    3021, -1.198958
    3031, -1.196381
    3041, -1.194775
    3051, -1.194584
    3061, -1.195712
    3071, -1.197611
    3081, -1.199441
    3091, -1.200298
    3101, -1.199487
    3111, -1.196764
    3121, -1.192466
    3131, -1.187454
    3141, -1.182899
    3151, -1.180000
    3161, -1.179724
    3171, -1.182620
    3181, -1.188721
    3191, -1.197499
    3201, -1.207915
    3211, -1.218566
    3221, -1.227950
    3231, -1.234783
    3241, -1.238254
    3251, -1.238100
    3261, -1.234499
    3271, -1.227930
    3281, -1.219093
    3291, -1.208916
    3301, -1.198560
    3311, -1.189328
    3321, -1.182483
    3331, -1.179025
    3341, -1.179494
    3351, -1.183840
    3361, -1.191402
    3371, -1.201003
    3381, -1.211225
    3391, -1.220819
    3401, -1.229107
    3411, -1.236148
    3421, -1.242535
    3431, -1.248908
    3441, -1.255426
    3451, -1.261433
    3461, -1.265470
    3471, -1.265748
    3481, -1.260994
    3491, -1.251244
    3501, -1.238010
    3511, -1.223749
    3521, -1.211048
    3531, -1.202052
    3541, -1.198217
    3551, -1.200294
    3561, -1.208360
    3571, -1.221823
    3581, -1.239388
    3591, -1.259048
    3601, -1.278224
    3611, -1.294195
    3621, -1.304782
    3631, -1.308993
    3641, -1.307176
    3651, -1.300600
    3661, -1.290827
    3671, -1.279270
    3681, -1.267082
    3691, -1.255226
    3701, -1.244598
    3711, -1.236089
    3721, -1.230571
    3731, -1.228828
    3741, -1.231458
    3751, -1.238759
    3761, -1.250591
    3771, -1.266239
    3781, -1.284288
    3791, -1.302603
    3801, -1.318555
    3811, -1.329613
    3821, -1.334165
    3831, -1.332091
    3841, -1.324680
    3851, -1.313979
    3861, -1.302085
    3871, -1.290752
    3881, -1.281302
    3891, -1.274685
    3901, -1.271556
    3911, -1.272302
    3921, -1.277001
    3931, -1.285349
    3941, -1.296571
    3951, -1.309375
    3961, -1.322035
    3971, -1.332672
    3981, -1.339729
    3991, -1.342466
    4001, -1.341172
    4011, -1.336964
    4021, -1.331321
    4031, -1.325657
    4041, -1.321086
    4051, -1.318381
    4061, -1.318026
    4071, -1.320286
    4081, -1.325243
    4091, -1.332782
    4101, -1.342543
    4111, -1.353834
    4121, -1.365576
    4131, -1.376309
    4141, -1.384374
    4151, -1.388288
    4161, -1.387243
    4171, -1.381453
    4181, -1.372149
    4191, -1.361205
    4201, -1.350658
    4211, -1.342337
    4221, -1.337679
    4231, -1.337689
    4241, -1.342941
    4251, -1.353567
    4261, -1.369199
    4271, -1.388828
    4281, -1.410632
    4291, -1.431872
    4301, -1.449119
    4311, -1.459097
    4321, -1.459973
    4331, -1.452256
    4341, -1.438468
    4351, -1.421910
    4361, -1.405534
    4371, -1.391441
    4381, -1.380889
    4391, -1.374502
    4401, -1.372477
    4411, -1.374740
    4421, -1.381020
    4431, -1.390872
    4441, -1.403663
    4451, -1.418549
    4461, -1.434458
    4471, -1.450107
    4481, -1.464081
    4491, -1.474989
    4501, -1.481712
    4511, -1.483676
    4521, -1.481051
    4531, -1.474746
    4541, -1.466178
    4551, -1.456917
    4561, -1.448358
    4571, -1.441509
    4581, -1.436916
    4591, -1.434689
    4601, -1.434603
    4611, -1.436234
    4621, -1.439118
    4631, -1.442883
    4641, -1.447341
    4651, -1.452496
    4661, -1.458488
    4671, -1.465473
    4681, -1.473505
    4691, -1.482421
    4701, -1.491756
    4711, -1.500719
    4721, -1.508231
    4731, -1.513083
    4741, -1.514206
    4751, -1.511012
    4761, -1.503651
    4771, -1.493053
    4781, -1.480726
    4791, -1.468424
    4801, -1.457837
    4811, -1.450394
    4821, -1.447170
    4831, -1.448850
    4841, -1.455712
    4851, -1.467577
    4861, -1.483713
    4871, -1.502702
    4881, -1.522332
    4891, -1.539668
    4901, -1.551538
    4911, -1.555505
    4921, -1.550890
    4931, -1.539091
    4941, -1.522890
    4951, -1.505377
    4961, -1.489164
    4971, -1.476090
    4981, -1.467243
    4991, -1.463072
    5001, -1.463502
    5011, -1.468004
    5021, -1.475657
    5031, -1.485231
    5041, -1.495335
    5051, -1.504637
    5061, -1.512132
    5071, -1.517345
    5081, -1.520370
    5091, -1.521724
    5101, -1.522084
    5111, -1.522032
    5121, -1.521886
    5131, -1.521648
    5141, -1.521047
    5151, -1.519658
    5161, -1.517064
    5171, -1.513009
    5181, -1.507514
    5191, -1.500904
    5201, -1.493762
    5211, -1.486825
    5221, -1.480879
    5231, -1.476656
    5241, -1.474767
    5251, -1.475647
    5261, -1.479509
    5271, -1.486293
    5281, -1.495606
    5291, -1.506683
    5301, -1.518370
    5311, -1.529222
    5321, -1.537732
    5331, -1.542693
    5341, -1.543563
    5351, -1.540634
    5361, -1.534886
    5371, -1.527632
    5381, -1.520138
    5391, -1.513373
    5401, -1.507923
    5411, -1.504023
    5421, -1.501651
    5431, -1.500648
    5441, -1.500826
    5451, -1.502043
    5461, -1.504247
    5471, -1.507473
    5481, -1.511811
    5491, -1.517361
    5501, -1.524175
    5511, -1.532205
    5521, -1.541252
    5531, -1.550906
    5541, -1.560508
    5551, -1.569146
    5561, -1.575735
    5571, -1.579214
    5581, -1.578840
    5591, -1.574482
    5601, -1.566742
    5611, -1.556838
    5621, -1.546312
    5631, -1.536697
    5641, -1.529296
    5651, -1.525066
    5661, -1.524597
    5671, -1.528136
    5681, -1.535617
    5691, -1.546680
    5701, -1.560677
    5711, -1.576666
    5721, -1.593396
    5731, -1.609336
    5741, -1.622771
    5751, -1.632027
    5761, -1.635829
    5771, -1.633683
    5781, -1.626087
    5791, -1.614431
    5801, -1.600638
    5811, -1.586735
    5821, -1.574537
    5831, -1.565483
    5841, -1.560595
    5851, -1.560480
    5861, -1.565343
    5871, -1.574969
    5881, -1.588669
    5891, -1.605200
    5901, -1.622739
    5911, -1.638985
    5921, -1.651560
    5931, -1.658662
    5941, -1.659718
    5951, -1.655570
    5961, -1.648059
    5971, -1.639305
    5981, -1.631124
    5991, -1.624755
    6001, -1.620837
    6011, -1.619502
    6021, -1.620514
    6031, -1.623401
    6041, -1.627570
    6051, -1.632409
    6061, -1.637349
    6071, -1.641902
    6081, -1.645682
    6091, -1.648410
    6101, -1.649943
    6111, -1.650318
    6121, -1.649795
    6131, -1.648869
    6141, -1.648225
    6151, -1.648635
    6161, -1.650829
    6171, -1.655334
    6181, -1.662332
    6191, -1.671519
    6201, -1.681992
    6211, -1.692223
    6221, -1.700210
    6231, -1.703924
    6241, -1.701978
    6251, -1.694233
    6261, -1.681904
    6271, -1.667105
    6281, -1.652183
    6291, -1.639199
    6301, -1.629707
    6311, -1.624740
    6321, -1.624876
    6331, -1.630303
    6341, -1.640848
    6351, -1.655955
    6361, -1.674607
    6371, -1.695247
    6381, -1.715738
    6391, -1.733519
    6401, -1.746055
    6411, -1.751554
    6421, -1.749592
    6431, -1.741198
    6441, -1.728359
    6451, -1.713294
    6461, -1.697953
    6471, -1.683814
    6481, -1.671908
    6491, -1.662922
    6501, -1.657297
    6511, -1.655301
    6521, -1.657052
    6531, -1.662514
    6541, -1.671459
    6551, -1.683404
    6561, -1.697551
    6571, -1.712727
    6581, -1.727393
    6591, -1.739787
    6601, -1.748231
    6611, -1.751570
    6621, -1.749540
    6631, -1.742850
    6641, -1.732924
    6651, -1.721480
    6661, -1.710154
    6671, -1.700294
    6681, -1.692905
    6691, -1.688671
    6701, -1.687999
    6711, -1.691042
    6721, -1.697697
    6731, -1.707555
    6741, -1.719829
    6751, -1.733280
    6761, -1.746217
    6771, -1.756673
    6781, -1.762813
    6791, -1.763517
    6801, -1.758815
    6811, -1.749893
    6821, -1.738637
    6831, -1.727047
    6841, -1.716803
    6851, -1.709071
    6861, -1.704489
    6871, -1.703240
    6881, -1.705134
    6891, -1.709697
    6901, -1.716261
    6911, -1.724058
    6921, -1.732324
    6931, -1.740409
    6941, -1.747851
    6951, -1.754406
    6961, -1.760002
    6971, -1.764656
    6981, -1.768357
    6991, -1.770985
    7001, -1.772283
    7011, -1.771902
    7021, -1.769510
    7031, -1.764941
    7041, -1.758306
    7051, -1.750045
    7061, -1.740878
    7071, -1.731693
    7081, -1.723416
    7091, -1.716901
    7101, -1.712866
    7111, -1.711857
    7121, -1.714238
    7131, -1.720185
    7141, -1.729668
    7151, -1.742415
    7161, -1.757852
    7171, -1.775018
    7181, -1.792504
    7191, -1.808458
    7201, -1.820780
    7211, -1.827556
    7221, -1.827651
    7231, -1.821145
    7241, -1.809314
    7251, -1.794164
    7261, -1.777856
    7271, -1.762280
    7281, -1.748892
    7291, -1.738712
    7301, -1.732403
    7311, -1.730344
    7321, -1.732689
    7331, -1.739387
    7341, -1.750168
    7351, -1.764500
    7361, -1.781516
    7371, -1.799943
    7381, -1.818083
    7391, -1.833922
    7401, -1.845457
    7411, -1.851208
    7421, -1.850702
    7431, -1.844633
    7441, -1.834579
    7451, -1.822478
    7461, -1.810166
    7471, -1.799129
    7481, -1.790437
    7491, -1.784787
    7501, -1.782573
    7511, -1.783942
    7521, -1.788828
    7531, -1.796956
    7541, -1.807829
    7551, -1.820698
    7561, -1.834554
    7571, -1.848153
    7581, -1.860134
    7591, -1.869236
    7601, -1.874572
    7611, -1.875869
    7621, -1.873529
    7631, -1.868498
    7641, -1.861988
    7651, -1.855216
    7661, -1.849213
    7671, -1.844743
    7681, -1.842292
    7691, -1.842094
    7701, -1.844164
    7711, -1.848337
    7721, -1.854284
    7731, -1.861541
    7741, -1.869531
    7751, -1.877593
    7761, -1.885034
    7771, -1.891212
    7781, -1.895622
    7791, -1.897997
    7801, -1.898362
    7811, -1.897050
    7821, -1.894641
    7831, -1.891862
    7841, -1.889476
    7851, -1.888174
    7861, -1.888490
    7871, -1.890750
    7881, -1.895027
    7891, -1.901121
    7901, -1.908560
    7911, -1.916625
    7921, -1.924438
    7931, -1.931097
    7941, -1.935866
    7951, -1.938346
    7961, -1.938562
    7971, -1.936928
    7981, -1.934100
    7991, -1.930787
    8001, -1.927599
    8011, -1.924953
    8021, -1.923062
    8031, -1.921969
    8041, -1.921627
    8051, -1.921973
    8061, -1.923004
    8071, -1.924814
    8081, -1.927589
    8091, -1.931568
    8101, -1.936973
    8111, -1.943917
    8121, -1.952323
    8131, -1.961845
    8141, -1.971826
    8151, -1.981309
    8161, -1.989141
    8171, -1.994194
    8181, -1.995659
    8191, -1.993315
    8201, -1.987637
    8211, -1.979678
    8221, -1.970805
    8231, -1.962411
    8241, -1.955715
    8251, -1.951650
    8261, -1.950839
    8271, -1.953594
    8281, -1.959913
    8291, -1.969477
    8301, -1.981616
    8311, -1.995294
    8321, -2.009115
    8331, -2.021438
    8341, -2.030622
    8351, -2.035399
    8361, -2.035237
    8371, -2.030505
    8381, -2.022335
    8391, -2.012279
    8401, -2.001940
    8411, -1.992726
    8421, -1.985737
    8431, -1.981750
    8441, -1.981238
    8451, -1.984387
    8461, -1.991100
    8471, -2.000974
    8481, -2.013255
    8491, -2.026810
    8501, -2.040153
    8511, -2.051588
    8521, -2.059519
    8531, -2.062862
    8541, -2.061396
    8551, -2.055823
    8561, -2.047522
    8571, -2.038128
    8581, -2.029170
    8591, -2.021854
    8601, -2.016997
    8611, -2.015029
    8621, -2.016025
    8631, -2.019740
    8641, -2.025628
    8651, -2.032873
    8661, -2.040454
    8671, -2.047257
    8681, -2.052269
    8691, -2.054792
    8701, -2.054621
    8711, -2.052085
    8721, -2.047945
    8731, -2.043179
    8741, -2.038767
    8751, -2.035517
    8761, -2.033970
    8771, -2.034364
    8781, -2.036637
    8791, -2.040454
    8801, -2.045260
    8811, -2.050363
    8821, -2.055041
    8831, -2.058670
    8841, -2.060841
    8851, -2.061423
    8861, -2.060552
    8871, -2.058553
    8881, -2.055817
    8891, -2.052696
    8901, -2.049425
    8911, -2.046102
    8921, -2.042706
    8931, -2.039163
    8941, -2.035415
    8951, -2.031500
    8961, -2.027588
    8971, -2.023999
    8981, -2.021165
    8991, -2.019573
    9001, -2.019687
    9011, -2.021874
    9021, -2.026329
    9031, -2.033002
    9041, -2.041534
    9051, -2.051209
    9061, -2.060939
    9071, -2.069343
    9081, -2.074960
    9091, -2.076596
    9101, -2.073689
    9111, -2.066529
    9121, -2.056174
    9131, -2.044140
    9141, -2.032031
    9151, -2.021266
    9161, -2.012944
    9171, -2.007819
    9181, -2.006322
    9191, -2.008590
    9201, -2.014487
    9211, -2.023594
    9221, -2.035189
    9231, -2.048232
    9241, -2.061386
    9251, -2.073119
    9261, -2.081941
    9271, -2.086731
    9281, -2.087044
    9291, -2.083239
    9301, -2.076337
    9311, -2.067703
    9321, -2.058719
    9331, -2.050544
    9341, -2.044012
    9351, -2.039618
    9361, -2.037548
    9371, -2.037731
    9381, -2.039889
    9391, -2.043607
    9401, -2.048397
    9411, -2.053782
    9421, -2.059376
    9431, -2.064948
    9441, -2.070452
    9451, -2.076006
    9461, -2.081832
    9471, -2.088155
    9481, -2.095103
    9491, -2.102608
    9501, -2.110344
    9511, -2.117698
    9521, -2.123827
    9531, -2.127785
    9541, -2.128748
    9551, -2.126253
    9561, -2.120375
    9571, -2.111748
    9581, -2.101421
    9591, -2.090644
    9601, -2.080654
    9611, -2.072543
    9621, -2.067195
    9631, -2.065278
    9641, -2.067251
    9651, -2.073373
    9661, -2.083687
    9671, -2.097974
    9681, -2.115662
    9691, -2.135702
    9701, -2.156448
    9711, -2.175620
    9721, -2.190552
    9731, -2.198826
    9741, -2.199158
    9751, -2.191987
    9761, -2.179297
    9771, -2.163813
    9781, -2.148180
    9791, -2.134499
    9801, -2.124220
    9811, -2.118228
    9821, -2.116957
    9831, -2.120489
    9841, -2.128585
    9851, -2.140687
    9861, -2.155867
    9871, -2.172782
    9881, -2.189682
    9891, -2.204559
    9901, -2.215503
    9911, -2.221222
    9921, -2.221469
    9931, -2.217121
    9941, -2.209831
    9951, -2.201500
    9961, -2.193843
    9971, -2.188168
    9981, -2.185331
    9991, -2.185775
   10001, -2.189591
   10011, -2.196567
   10021, -2.206224
   10031, -2.217830
   10041, -2.230417
   10051, -2.242835
   10061, -2.253854
   10071, -2.262335
   10081, -2.267448
   10091, -2.268868
   10101, -2.266855
   10111, -2.262184
   10121, -2.255953
   10131, -2.249353
   10141, -2.243487
   10151, -2.239260
   10161, -2.237321
   10171, -2.238061
   10181, -2.241606
   10191, -2.247826
   10201, -2.256335
   10211, -2.266493
   10221, -2.277427
   10231, -2.288085
   10241, -2.297350
   10251, -2.304204
   10261, -2.307921
   10271, -2.308214
   10281, -2.305290
   10291, -2.299770
   10301, -2.292543
   10311, -2.284591
   10321, -2.276868
   10331, -2.270217
   10341, -2.265345
   10351, -2.262810
   10361, -2.263020
   10371, -2.266222
   10381, -2.272472
   10391, -2.281591
   10401, -2.293100
   10411, -2.306153
   10421, -2.319500
   10431, -2.331538
   10441, -2.340539
   10451, -2.345053
   10461, -2.344380
   10471, -2.338850
   10481, -2.329727
   10491, -2.318805
   10501, -2.307941
   10511, -2.298726
   10521, -2.292343
   10531, -2.289548
   10541, -2.290698
   10551, -2.295775
   10561, -2.304390
   10571, -2.315747
   10581, -2.328622
   10591, -2.341376
   10601, -2.352120
   10611, -2.359058
   10621, -2.360995
   10631, -2.357747
   10641, -2.350225
   10651, -2.340117
   10661, -2.329382
   10671, -2.319839
   10681, -2.312931
   10691, -2.309665
   10701, -2.310629
   10711, -2.316007
   10721, -2.325569
   10731, -2.338617
   10741, -2.353895
   10751, -2.369531
   10761, -2.383127
   10771, -2.392156
   10781, -2.394690
   10791, -2.390147
   10801, -2.379558
   10811, -2.365118
   10821, -2.349405
   10831, -2.334733
   10841, -2.322872
   10851, -2.315021
   10861, -2.311907
   10871, -2.313882
   10881, -2.320985
   10891, -2.332945
   10901, -2.349131
   10911, -2.368441
   10921, -2.389177
   10931, -2.408996
   10941, -2.425098
   10951, -2.434818
   10961, -2.436523
   10971, -2.430302
   10981, -2.417897
   10991, -2.401928
   11001, -2.385015
   11011, -2.369248
   11021, -2.356044
   11031, -2.346223
   11041, -2.340142
   11051, -2.337814
   11061, -2.338998
   11071, -2.343249
   11081, -2.349963
   11091, -2.358410
   11101, -2.367788
   11111, -2.377283
   11121, -2.386166
   11131, -2.393870
   11141, -2.400065
   11151, -2.404675
   11161, -2.407842
   11171, -2.409842
   11181, -2.410995
   11191, -2.411569
   11201, -2.411722
   11211, -2.411476
   11221, -2.410728
   11231, -2.409282
   11241, -2.406920
   11251, -2.403464
   11261, -2.398850
   11271, -2.393170
   11281, -2.386687
   11291, -2.379816
   11301, -2.373073
   11311, -2.367028
   11321, -2.362248
   11331, -2.359259
   11341, -2.358518
   11351, -2.360392
   11361, -2.365143
   11371, -2.372900
   11381, -2.383623
   11391, -2.397034
   11401, -2.412533
   11411, -2.429083
   11421, -2.445121
   11431, -2.458588
   11441, -2.467187
   11451, -2.468976
   11461, -2.463073
   11471, -2.450078
   11481, -2.431864
   11491, -2.410916
   11501, -2.389663
   11511, -2.370100
   11521, -2.353695
   11531, -2.341451
   11541, -2.334017
   11551, -2.331785
   11561, -2.334955
   11571, -2.343559
   11581, -2.357447
   11591, -2.376225
   11601, -2.399137
   11611, -2.424894
   11621, -2.451474
   11631, -2.476018
   11641, -2.495065
   11651, -2.505367
   11661, -2.505123
   11671, -2.494799
   11681, -2.476818
   11691, -2.454399
   11701, -2.430497
   11711, -2.407324
   11721, -2.386337
   11731, -2.368436
   11741, -2.354160
   11751, -2.343843
   11761, -2.337720
   11771, -2.335973
   11781, -2.338752
   11791, -2.346167
   11801, -2.358239
   11811, -2.374827
   11821, -2.395486
   11831, -2.419275
   11841, -2.444490
   11851, -2.468440
   11861, -2.487526
   11871, -2.498005
   11881, -2.497476
   11891, -2.486186
   11901, -2.466938
   11911, -2.443702
   11921, -2.420172
   11931, -2.399093
   11941, -2.382225
   11951, -2.370567
   11961, -2.364588
   11971, -2.364384
   11981, -2.369752
   11991, -2.380183
   12001, -2.394810
   12011, -2.412313
   12021, -2.430850
   12031, -2.448119
   12041, -2.461665
   12051, -2.469501
   12061, -2.470794
   12071, -2.466188
   12081, -2.457504
   12091, -2.447050
   12101, -2.436984
   12111, -2.428972
   12121, -2.424104
   12131, -2.422941
   12141, -2.425595
   12151, -2.431782
   12161, -2.440841
   12171, -2.451752
   12181, -2.463174
   12191, -2.473559
   12201, -2.481389
   12211, -2.485507
   12221, -2.485431
   12231, -2.481484
   12241, -2.474672
   12251, -2.466374
   12261, -2.458014
   12271, -2.450834
   12281, -2.445791
   12291, -2.443536
   12301, -2.444443
   12311, -2.448634
   12321, -2.456005
   12331, -2.466219
   12341, -2.478696
   12351, -2.492602
   12361, -2.506847
   12371, -2.520150
   12381, -2.531184
   12391, -2.538811
   12401, -2.542349
   12411, -2.541749
   12421, -2.537601
   12431, -2.530950
   12441, -2.523039
   12451, -2.515065
   12461, -2.508040
   12471, -2.502727
   12481, -2.499645
   12491, -2.499089
   12501, -2.501167
   12511, -2.505811
   12521, -2.512800
   12531, -2.521755
   12541, -2.532147
   12551, -2.543305
   12561, -2.554446
   12571, -2.564737
   12581, -2.573401
   12591, -2.579831
   12601, -2.583708
   12611, -2.585058
   12621, -2.584235
   12631, -2.581827
   12641, -2.578534
   12651, -2.575044
   12661, -2.571947
   12671, -2.569686
   12681, -2.568542
   12691, -2.568640
   12701, -2.569973
   12711, -2.572426
   12721, -2.575807
   12731, -2.579882
   12741, -2.584400
   12751, -2.589123
   12761, -2.593846
   12771, -2.598407
   12781, -2.602690
   12791, -2.606618
   12801, -2.610139
   12811, -2.613215
   12821, -2.615813
   12831, -2.617901
   12841, -2.619453
   12851, -2.620457
   12861, -2.620928
   12871, -2.620917
   12881, -2.620517
   12891, -2.619860
   12901, -2.619112
   12911, -2.618459
   12921, -2.618092
   12931, -2.618192
   12941, -2.618920
   12951, -2.620398
   12961, -2.622703
   12971, -2.625848
   12981, -2.629777
   12991, -2.634344
   13001, -2.639307
   13011, -2.644323
   13021, -2.648956
   13031, -2.652710
   13041, -2.655083
   13051, -2.655645
   13061, -2.654124
   13071, -2.650479
   13081, -2.644924
   13091, -2.637906
   13101, -2.630040
   13111, -2.622023
   13121, -2.614547
   13131, -2.608243
   13141, -2.603639
   13151, -2.601145
   13161, -2.601043
   13171, -2.603490
   13181, -2.608507
   13191, -2.615974
   13201, -2.625605
   13211, -2.636923
   13221, -2.649228
   13231, -2.661585
   13241, -2.672844
   13251, -2.681732
   13261, -2.687039
   13271, -2.687866
   13281, -2.683854
   13291, -2.675289
   13301, -2.663020
   13311, -2.648238
   13321, -2.632232
   13331, -2.616191
   13341, -2.601106
   13351, -2.587746
   13361, -2.576674
   13371, -2.568278
   13381, -2.562810
   13391, -2.560414
   13401, -2.561141
   13411, -2.564964
   13421, -2.571773
   13431, -2.581364
   13441, -2.593420
   13451, -2.607471
   13461, -2.622858
   13471, -2.638683
   13481, -2.653790
   13491, -2.666793
   13501, -2.676217
   13511, -2.680743
   13521, -2.679539
   13531, -2.672513
   13541, -2.660362
   13551, -2.644382
   13561, -2.626148
   13571, -2.607218
   13581, -2.588950
   13591, -2.572434
   13601, -2.558500
   13611, -2.547753
   13621, -2.540619
   13631, -2.537384
   13641, -2.538204
   13651, -2.543114
   13661, -2.551999
   13671, -2.564554
   13681, -2.580207
   13691, -2.598027
   13701, -2.616628
   13711, -2.634148
   13721, -2.648393
   13731, -2.657248
   13741, -2.659306
   13751, -2.654397
   13761, -2.643663
   13771, -2.629119
   13781, -2.613010
   13791, -2.597328
   13801, -2.583600
   13811, -2.572877
   13821, -2.565805
   13831, -2.562719
   13841, -2.563703
   13851, -2.568625
   13861, -2.577128
   13871, -2.588611
   13881, -2.602171
   13891, -2.616576
   13901, -2.630278
   13911, -2.641550
   13921, -2.648779
   13931, -2.650871
   13941, -2.647591
   13951, -2.639641
   13961, -2.628423
   13971, -2.615642
   13981, -2.602944
   13991, -2.591710
   14001, -2.582995
   14011, -2.577547
   14021, -2.575858
   14031, -2.578206
   14041, -2.584678
   14051, -2.595162
   14061, -2.609302
   14071, -2.626415
   14081, -2.645378
   14091, -2.664528
   14101, -2.681664
   14111, -2.694295
   14121, -2.700230
   14131, -2.698350
   14141, -2.689100
   14151, -2.674313
   14161, -2.656512
   14171, -2.638192
   14181, -2.621394
   14191, -2.607607
   14201, -2.597830
   14211, -2.592688
   14221, -2.592535
   14231, -2.597507
   14241, -2.607545
   14251, -2.622354
   14261, -2.641321
   14271, -2.663373
   14281, -2.686809
   14291, -2.709190
   14301, -2.727478
   14311, -2.738647
   14321, -2.740729
   14331, -2.733704
   14341, -2.719499
   14351, -2.701103
   14361, -2.681522
   14371, -2.663167
   14381, -2.647717
   14391, -2.636227
   14401, -2.629306
   14411, -2.627255
   14421, -2.630163
   14431, -2.637946
   14441, -2.650350
   14451, -2.666895
   14461, -2.686797
   14471, -2.708838
   14481, -2.731263
   14491, -2.751759
   14501, -2.767703
   14511, -2.776764
   14521, -2.777706
   14531, -2.770909
   14541, -2.758194
   14551, -2.742098
   14561, -2.725113
   14571, -2.709259
   14581, -2.695968
   14591, -2.686168
   14601, -2.680395
   14611, -2.678906
   14621, -2.681743
   14631, -2.688771
   14641, -2.699674
   14651, -2.713931
   14661, -2.730772
   14671, -2.749130
   14681, -2.767629
   14691, -2.784648
   14701, -2.798516
   14711, -2.807844
   14721, -2.811886
   14731, -2.810750
   14741, -2.805325
   14751, -2.796976
   14761, -2.787174
   14771, -2.777220
   14781, -2.768119
   14791, -2.760557
   14801, -2.754946
   14811, -2.751479
   14821, -2.750188
   14831, -2.750990
   14841, -2.753720
   14851, -2.758154
   14861, -2.764024
   14871, -2.771033
   14881, -2.778852
   14891, -2.787129
   14901, -2.795497
   14911, -2.803574
   14921, -2.810988
   14931, -2.817395
   14941, -2.822511
   14951, -2.826141
   14961, -2.828210