 variables=iter,cl,cd,cm,clim,cdim,cmim,clip,cdip,cmip,cljm,cdjm,cmjm,cljp,cdjp,cmjp
 zone t ="coefhist", f=point
       1 -2.880539E-06  1.278666E-02 -2.593902E-06  0.000000E+00  0.000000E+00  0.000000E+00  0.000000E+00  0.000000E+00  0.000000E+00 -2.880539E-06  1.278666E-02 -2.593902E-06  0.000000E+00  0.000000E+00  0.000000E+00
      11  1.471026E-04  1.190281E-01 -1.153793E-04  0.000000E+00  0.000000E+00  0.000000E+00  0.000000E+00  0.000000E+00  0.000000E+00  1.471026E-04  1.190281E-01 -1.153793E-04  0.000000E+00  0.000000E+00  0.000000E+00
      21  4.626486E-04  1.716943E-01 -2.426058E-04  0.000000E+00  0.000000E+00  0.000000E+00  0.000000E+00  0.000000E+00  0.000000E+00  4.626486E-04  1.716943E-01 -2.426058E-04  0.000000E+00  0.000000E+00  0.000000E+00
      31  6.387076E-04  1.810668E-01 -2.829613E-04  0.000000E+00  0.000000E+00  0.000000E+00  0.000000E+00  0.000000E+00  0.000000E+00  6.387076E-04  1.810668E-01 -2.829613E-04  0.000000E+00  0.000000E+00  0.000000E+00
      41  1.000590E-03  1.693364E-01 -4.669146E-04  0.000000E+00  0.000000E+00  0.000000E+00  0.000000E+00  0.000000E+00  0.000000E+00  1.000590E-03  1.693364E-01 -4.669146E-04  0.000000E+00  0.000000E+00  0.000000E+00
      51  1.794683E-03  1.509277E-01 -8.933784E-04  0.000000E+00  0.000000E+00  0.000000E+00  0.000000E+00  0.000000E+00  0.000000E+00  1.794683E-03  1.509277E-01 -8.933784E-04  0.000000E+00  0.000000E+00  0.000000E+00
      61  2.715862E-03  1.321629E-01 -1.352830E-03  0.000000E+00  0.000000E+00  0.000000E+00  0.000000E+00  0.000000E+00  0.000000E+00  2.715862E-03  1.321629E-01 -1.352830E-03  0.000000E+00  0.000000E+00  0.000000E+00
      71  3.323316E-03  1.155958E-01 -1.615019E-03  0.000000E+00  0.000000E+00  0.000000E+00  0.000000E+00  0.000000E+00  0.000000E+00  3.323316E-03  1.155958E-01 -1.615019E-03  0.000000E+00  0.000000E+00  0.000000E+00
      81  3.454821E-03  1.019521E-01 -1.626591E-03  0.000000E+00  0.000000E+00  0.000000E+00  0.000000E+00  0.000000E+00  0.000000E+00  3.454821E-03  1.019521E-01 -1.626591E-03  0.000000E+00  0.000000E+00  0.000000E+00
      91  3.220464E-03  9.060359E-02 -1.455305E-03  0.000000E+00  0.000000E+00  0.000000E+00  0.000000E+00  0.000000E+00  0.000000E+00  3.220464E-03  9.060359E-02 -1.455305E-03  0.000000E+00  0.000000E+00  0.000000E+00
     101  2.820505E-03  8.011718E-02 -1.188400E-03  0.000000E+00  0.000000E+00  0.000000E+00  0.000000E+00  0.000000E+00  0.000000E+00  2.820505E-03  8.011718E-02 -1.188400E-03  0.000000E+00  0.000000E+00  0.000000E+00
     111  2.424492E-03  6.898509E-02 -8.996927E-04  0.000000E+00  0.000000E+00  0.000000E+00  0.000000E+00  0.000000E+00  0.000000E+00  2.424492E-03  6.898509E-02 -8.996927E-04  0.000000E+00  0.000000E+00  0.000000E+00
     121  2.116269E-03  5.617082E-02 -6.311585E-04  0.000000E+00  0.000000E+00  0.000000E+00  0.000000E+00  0.000000E+00  0.000000E+00  2.116269E-03  5.617082E-02 -6.311585E-04  0.000000E+00  0.000000E+00  0.000000E+00
     131  1.887885E-03  4.131640E-02 -3.817685E-04  0.000000E+00  0.000000E+00  0.000000E+00  0.000000E+00  0.000000E+00  0.000000E+00  1.887885E-03  4.131640E-02 -3.817685E-04  0.000000E+00  0.000000E+00  0.000000E+00
     141  1.689381E-03  2.468550E-02 -1.378477E-04  0.000000E+00  0.000000E+00  0.000000E+00  0.000000E+00  0.000000E+00  0.000000E+00  1.689381E-03  2.468550E-02 -1.378477E-04  0.000000E+00  0.000000E+00  0.000000E+00
     151  1.483722E-03  6.975349E-03  8.485661E-05  0.000000E+00  0.000000E+00  0.000000E+00  0.000000E+00  0.000000E+00  0.000000E+00  1.483722E-03  6.975349E-03  8.485661E-05  0.000000E+00  0.000000E+00  0.000000E+00
     161  1.259004E-03 -1.091907E-02  2.326758E-04  0.000000E+00  0.000000E+00  0.000000E+00  0.000000E+00  0.000000E+00  0.000000E+00  1.259004E-03 -1.091907E-02  2.326758E-04  0.000000E+00  0.000000E+00  0.000000E+00
     171  1.007600E-03 -2.813196E-02  2.451495E-04  0.000000E+00  0.000000E+00  0.000000E+00  0.000000E+00  0.000000E+00  0.000000E+00  1.007600E-03 -2.813196E-02  2.451495E-04  0.000000E+00  0.000000E+00  0.000000E+00
     181  7.059285E-04 -4.397555E-02  1.046604E-04  0.000000E+00  0.000000E+00  0.000000E+00  0.000000E+00  0.000000E+00  0.000000E+00  7.059285E-04 -4.397555E-02  1.046604E-04  0.000000E+00  0.000000E+00  0.000000E+00
     191  3.186567E-04 -5.795066E-02 -1.299706E-04  0.000000E+00  0.000000E+00  0.000000E+00  0.000000E+00  0.000000E+00  0.000000E+00  3.186567E-04 -5.795066E-02 -1.299706E-04  0.000000E+00  0.000000E+00  0.000000E+00
     201 -1.712955E-04 -6.963375E-02 -3.389131E-04  0.000000E+00  0.000000E+00  0.000000E+00  0.000000E+00  0.000000E+00  0.000000E+00 -1.712955E-04 -6.963375E-02 -3.389131E-04  0.000000E+00  0.000000E+00  0.000000E+00
     211 -7.341144E-04 -7.855233E-02 -4.045514E-04  0.000000E+00  0.000000E+00  0.000000E+00  0.000000E+00  0.000000E+00  0.000000E+00 -7.341144E-04 -7.855233E-02 -4.045514E-04  0.000000E+00  0.000000E+00  0.000000E+00
     221 -1.299924E-03 -8.418145E-02 -2.766939E-04  0.000000E+00  0.000000E+00  0.000000E+00  0.000000E+00  0.000000E+00  0.000000E+00 -1.299924E-03 -8.418145E-02 -2.766939E-04  0.000000E+00  0.000000E+00  0.000000E+00
     231 -1.797054E-03 -8.609544E-02  8.545058E-06  0.000000E+00  0.000000E+00  0.000000E+00  0.000000E+00  0.000000E+00  0.000000E+00 -1.797054E-03 -8.609544E-02  8.545058E-06  0.000000E+00  0.000000E+00  0.000000E+00
     241 -2.181046E-03 -8.417417E-02  3.609709E-04  0.000000E+00  0.000000E+00  0.000000E+00  0.000000E+00  0.000000E+00  0.000000E+00 -2.181046E-03 -8.417417E-02  3.609709E-04  0.000000E+00  0.000000E+00  0.000000E+00
     251 -2.433101E-03 -7.871756E-02  6.871967E-04  0.000000E+00  0.000000E+00  0.000000E+00  0.000000E+00  0.000000E+00  0.000000E+00 -2.433101E-03 -7.871756E-02  6.871967E-04  0.000000E+00  0.000000E+00  0.000000E+00
     261 -2.551124E-03 -7.039303E-02  9.291617E-04  0.000000E+00  0.000000E+00  0.000000E+00  0.000000E+00  0.000000E+00  0.000000E+00 -2.551124E-03 -7.039303E-02  9.291617E-04  0.000000E+00  0.000000E+00  0.000000E+00
     271 -2.555250E-03 -6.005512E-02  1.077179E-03  0.000000E+00  0.000000E+00  0.000000E+00  0.000000E+00  0.000000E+00  0.000000E+00 -2.555250E-03 -6.005512E-02  1.077179E-03  0.000000E+00  0.000000E+00  0.000000E+00
     281 -2.489553E-03 -4.854387E-02  1.155358E-03  0.000000E+00  0.000000E+00  0.000000E+00  0.000000E+00  0.000000E+00  0.000000E+00 -2.489553E-03 -4.854387E-02  1.155358E-03  0.000000E+00  0.000000E+00  0.000000E+00
     291 -2.397002E-03 -3.655744E-02  1.190017E-03  0.000000E+00  0.000000E+00  0.000000E+00  0.000000E+00  0.000000E+00  0.000000E+00 -2.397002E-03 -3.655744E-02  1.190017E-03  0.000000E+00  0.000000E+00  0.000000E+00
     301 -2.286517E-03 -2.463029E-02  1.186257E-03  0.000000E+00  0.000000E+00  0.000000E+00  0.000000E+00  0.000000E+00  0.000000E+00 -2.286517E-03 -2.463029E-02  1.186257E-03  0.000000E+00  0.000000E+00  0.000000E+00
     311 -2.131994E-03 -1.318481E-02  1.132784E-03  0.000000E+00  0.000000E+00  0.000000E+00  0.000000E+00  0.000000E+00  0.000000E+00 -2.131994E-03 -1.318481E-02  1.132784E-03  0.000000E+00  0.000000E+00  0.000000E+00
     321 -1.905941E-03 -2.597805E-03  1.025690E-03  0.000000E+00  0.000000E+00  0.000000E+00  0.000000E+00  0.000000E+00  0.000000E+00 -1.905941E-03 -2.597805E-03  1.025690E-03  0.000000E+00  0.000000E+00  0.000000E+00
     331 -1.608943E-03  6.760407E-03  8.826658E-04  0.000000E+00  0.000000E+00  0.000000E+00  0.000000E+00  0.000000E+00  0.000000E+00 -1.608943E-03  6.760407E-03  8.826658E-04  0.000000E+00  0.000000E+00  0.000000E+00
     341 -1.267325E-03  1.452635E-02  7.341472E-04  0.000000E+00  0.000000E+00  0.000000E+00  0.000000E+00  0.000000E+00  0.000000E+00 -1.267325E-03  1.452635E-02  7.341472E-04  0.000000E+00  0.000000E+00  0.000000E+00
     351 -9.123737E-04  2.037946E-02  6.047999E-04  0.000000E+00  0.000000E+00  0.000000E+00  0.000000E+00  0.000000E+00  0.000000E+00 -9.123737E-04  2.037946E-02  6.047999E-04  0.000000E+00  0.000000E+00  0.000000E+00
     361 -5.681093E-04  2.410842E-02  5.041900E-04  0.000000E+00  0.000000E+00  0.000000E+00  0.000000E+00  0.000000E+00  0.000000E+00 -5.681093E-04  2.410842E-02  5.041900E-04  0.000000E+00  0.000000E+00  0.000000E+00
     371 -2.528698E-04  2.569673E-02  4.299304E-04  0.000000E+00  0.000000E+00  0.000000E+00  0.000000E+00  0.000000E+00  0.000000E+00 -2.528698E-04  2.569673E-02  4.299304E-04  0.000000E+00  0.000000E+00  0.000000E+00
     381  1.816060E-05  2.539925E-02  3.743828E-04  0.000000E+00  0.000000E+00  0.000000E+00  0.000000E+00  0.000000E+00  0.000000E+00  1.816060E-05  2.539925E-02  3.743828E-04  0.000000E+00  0.000000E+00  0.000000E+00
     391  2.375062E-04  2.376461E-02  3.283187E-04  0.000000E+00  0.000000E+00  0.000000E+00  0.000000E+00  0.000000E+00  0.000000E+00  2.375062E-04  2.376461E-02  3.283187E-04  0.000000E+00  0.000000E+00  0.000000E+00
     401  4.119249E-04  2.155995E-02  2.823574E-04  0.000000E+00  0.000000E+00  0.000000E+00  0.000000E+00  0.000000E+00  0.000000E+00  4.119249E-04  2.155995E-02  2.823574E-04  0.000000E+00  0.000000E+00  0.000000E+00
     411  5.629816E-04  1.958626E-02  2.288384E-04  0.000000E+00  0.000000E+00  0.000000E+00  0.000000E+00  0.000000E+00  0.000000E+00  5.629816E-04  1.958626E-02  2.288384E-04  0.000000E+00  0.000000E+00  0.000000E+00
     421  7.192931E-04  1.842858E-02  1.638431E-04  0.000000E+00  0.000000E+00  0.000000E+00  0.000000E+00  0.000000E+00  0.000000E+00  7.192931E-04  1.842858E-02  1.638431E-04  0.000000E+00  0.000000E+00  0.000000E+00
     431  9.026353E-04  1.823838E-02  8.710274E-05  0.000000E+00  0.000000E+00  0.000000E+00  0.000000E+00  0.000000E+00  0.000000E+00  9.026353E-04  1.823838E-02  8.710274E-05  0.000000E+00  0.000000E+00  0.000000E+00
     441  1.111247E-03  1.865446E-02 -6.691388E-07  0.000000E+00  0.000000E+00  0.000000E+00  0.000000E+00  0.000000E+00  0.000000E+00  1.111247E-03  1.865446E-02 -6.691388E-07  0.000000E+00  0.000000E+00  0.000000E+00
     451  1.307949E-03  1.892218E-02 -1.004052E-04  0.000000E+00  0.000000E+00  0.000000E+00  0.000000E+00  0.000000E+00  0.000000E+00  1.307949E-03  1.892218E-02 -1.004052E-04  0.000000E+00  0.000000E+00  0.000000E+00
     461  1.426697E-03  1.818915E-02 -2.139401E-04  0.000000E+00  0.000000E+00  0.000000E+00  0.000000E+00  0.000000E+00  0.000000E+00  1.426697E-03  1.818915E-02 -2.139401E-04  0.000000E+00  0.000000E+00  0.000000E+00
     471  1.407145E-03  1.586473E-02 -3.399039E-04  0.000000E+00  0.000000E+00  0.000000E+00  0.000000E+00  0.000000E+00  0.000000E+00  1.407145E-03  1.586473E-02 -3.399039E-04  0.000000E+00  0.000000E+00  0.000000E+00
     481  1.242071E-03  1.187594E-02 -4.701767E-04  0.000000E+00  0.000000E+00  0.000000E+00  0.000000E+00  0.000000E+00  0.000000E+00  1.242071E-03  1.187594E-02 -4.701767E-04  0.000000E+00  0.000000E+00  0.000000E+00
     491  9.945478E-04  6.685916E-03 -5.894750E-04  0.000000E+00  0.000000E+00  0.000000E+00  0.000000E+00  0.000000E+00  0.000000E+00  9.945478E-04  6.685916E-03 -5.894750E-04  0.000000E+00  0.000000E+00  0.000000E+00
     501  7.555124E-04  1.073028E-03 -6.760630E-04  0.000000E+00  0.000000E+00  0.000000E+00  0.000000E+00  0.000000E+00  0.000000E+00  7.555124E-04  1.073028E-03 -6.760630E-04  0.000000E+00  0.000000E+00  0.000000E+00
     511  5.748917E-04 -4.185582E-03 -7.035927E-04  0.000000E+00  0.000000E+00  0.000000E+00  0.000000E+00  0.000000E+00  0.000000E+00  5.748917E-04 -4.185582E-03 -7.035927E-04  0.000000E+00  0.000000E+00  0.000000E+00
     521  4.360984E-04 -8.548257E-03 -6.499889E-04  0.000000E+00  0.000000E+00  0.000000E+00  0.000000E+00  0.000000E+00  0.000000E+00  4.360984E-04 -8.548257E-03 -6.499889E-04  0.000000E+00  0.000000E+00  0.000000E+00
     531  2.952476E-04 -1.177942E-02 -5.138661E-04  0.000000E+00  0.000000E+00  0.000000E+00  0.000000E+00  0.000000E+00  0.000000E+00  2.952476E-04 -1.177942E-02 -5.138661E-04  0.000000E+00  0.000000E+00  0.000000E+00
     541  1.316850E-04 -1.389505E-02 -3.235365E-04  0.000000E+00  0.000000E+00  0.000000E+00  0.000000E+00  0.000000E+00  0.000000E+00  1.316850E-04 -1.389505E-02 -3.235365E-04  0.000000E+00  0.000000E+00  0.000000E+00
     551 -4.272155E-05 -1.506496E-02 -1.248572E-04  0.000000E+00  0.000000E+00  0.000000E+00  0.000000E+00  0.000000E+00  0.000000E+00 -4.272155E-05 -1.506496E-02 -1.248572E-04  0.000000E+00  0.000000E+00  0.000000E+00
     561 -2.073006E-04 -1.552548E-02  4.359158E-05  0.000000E+00  0.000000E+00  0.000000E+00  0.000000E+00  0.000000E+00  0.000000E+00 -2.073006E-04 -1.552548E-02  4.359158E-05  0.000000E+00  0.000000E+00  0.000000E+00
     571 -3.509967E-04 -1.551610E-02  1.662310E-04  0.000000E+00  0.000000E+00  0.000000E+00  0.000000E+00  0.000000E+00  0.000000E+00 -3.509967E-04 -1.551610E-02  1.662310E-04  0.000000E+00  0.000000E+00  0.000000E+00
     581 -4.718360E-04 -1.523664E-02  2.478536E-04  0.000000E+00  0.000000E+00  0.000000E+00  0.000000E+00  0.000000E+00  0.000000E+00 -4.718360E-04 -1.523664E-02  2.478536E-04  0.000000E+00  0.000000E+00  0.000000E+00
     591 -5.703482E-04 -1.482342E-02  3.018529E-04  0.000000E+00  0.000000E+00  0.000000E+00  0.000000E+00  0.000000E+00  0.000000E+00 -5.703482E-04 -1.482342E-02  3.018529E-04  0.000000E+00  0.000000E+00  0.000000E+00
     601 -6.470215E-04 -1.434524E-02  3.407695E-04  0.000000E+00  0.000000E+00  0.000000E+00  0.000000E+00  0.000000E+00  0.000000E+00 -6.470215E-04 -1.434524E-02  3.407695E-04  0.000000E+00  0.000000E+00  0.000000E+00
     611 -7.029011E-04 -1.381709E-02  3.723677E-04  0.000000E+00  0.000000E+00  0.000000E+00  0.000000E+00  0.000000E+00  0.000000E+00 -7.029011E-04 -1.381709E-02  3.723677E-04  0.000000E+00  0.000000E+00  0.000000E+00
     621 -7.404030E-04 -1.322433E-02  3.993704E-04  0.000000E+00  0.000000E+00  0.000000E+00  0.000000E+00  0.000000E+00  0.000000E+00 -7.404030E-04 -1.322433E-02  3.993704E-04  0.000000E+00  0.000000E+00  0.000000E+00
     631 -7.638687E-04 -1.254764E-02  4.211127E-04  0.000000E+00  0.000000E+00  0.000000E+00  0.000000E+00  0.000000E+00  0.000000E+00 -7.638687E-04 -1.254764E-02  4.211127E-04  0.000000E+00  0.000000E+00  0.000000E+00
     641 -7.797381E-04 -1.178080E-02  4.361112E-04  0.000000E+00  0.000000E+00  0.000000E+00  0.000000E+00  0.000000E+00  0.000000E+00 -7.797381E-04 -1.178080E-02  4.361112E-04  0.000000E+00  0.000000E+00  0.000000E+00
     651 -7.955162E-04 -1.093728E-02  4.443050E-04  0.000000E+00  0.000000E+00  0.000000E+00  0.000000E+00  0.000000E+00  0.000000E+00 -7.955162E-04 -1.093728E-02  4.443050E-04  0.000000E+00  0.000000E+00  0.000000E+00
     661 -8.171109E-04 -1.004521E-02  4.477038E-04  0.000000E+00  0.000000E+00  0.000000E+00  0.000000E+00  0.000000E+00  0.000000E+00 -8.171109E-04 -1.004521E-02  4.477038E-04  0.000000E+00  0.000000E+00  0.000000E+00
     671 -8.453898E-04 -9.134356E-03  4.490807E-04  0.000000E+00  0.000000E+00  0.000000E+00  0.000000E+00  0.000000E+00  0.000000E+00 -8.453898E-04 -9.134356E-03  4.490807E-04  0.000000E+00  0.000000E+00  0.000000E+00
     681 -8.738893E-04 -8.222107E-03  4.496730E-04  0.000000E+00  0.000000E+00  0.000000E+00  0.000000E+00  0.000000E+00  0.000000E+00 -8.738893E-04 -8.222107E-03  4.496730E-04  0.000000E+00  0.000000E+00  0.000000E+00
     691 -8.896357E-04 -7.305972E-03  4.476400E-04  0.000000E+00  0.000000E+00  0.000000E+00  0.000000E+00  0.000000E+00  0.000000E+00 -8.896357E-04 -7.305972E-03  4.476400E-04  0.000000E+00  0.000000E+00  0.000000E+00
     701 -8.775558E-04 -6.366884E-03  4.385464E-04  0.000000E+00  0.000000E+00  0.000000E+00  0.000000E+00  0.000000E+00  0.000000E+00 -8.775558E-04 -6.366884E-03  4.385464E-04  0.000000E+00  0.000000E+00  0.000000E+00
     711 -8.266532E-04 -5.381937E-03  4.176505E-04  0.000000E+00  0.000000E+00  0.000000E+00  0.000000E+00  0.000000E+00  0.000000E+00 -8.266532E-04 -5.381937E-03  4.176505E-04  0.000000E+00  0.000000E+00  0.000000E+00
     721 -7.347702E-04 -4.340119E-03  3.824487E-04  0.000000E+00  0.000000E+00  0.000000E+00  0.000000E+00  0.000000E+00  0.000000E+00 -7.347702E-04 -4.340119E-03  3.824487E-04  0.000000E+00  0.000000E+00  0.000000E+00
     731 -6.094806E-04 -3.253347E-03  3.338531E-04  0.000000E+00  0.000000E+00  0.000000E+00  0.000000E+00  0.000000E+00  0.000000E+00 -6.094806E-04 -3.253347E-03  3.338531E-04  0.000000E+00  0.000000E+00  0.000000E+00
     741 -4.650033E-04 -2.158037E-03  2.755250E-04  0.000000E+00  0.000000E+00  0.000000E+00  0.000000E+00  0.000000E+00  0.000000E+00 -4.650033E-04 -2.158037E-03  2.755250E-04  0.000000E+00  0.000000E+00  0.000000E+00
     751 -3.171629E-04 -1.107593E-03  2.121804E-04  0.000000E+00  0.000000E+00  0.000000E+00  0.000000E+00  0.000000E+00  0.000000E+00 -3.171629E-04 -1.107593E-03  2.121804E-04  0.000000E+00  0.000000E+00  0.000000E+00
     761 -1.790009E-04 -1.602570E-04  1.481142E-04  0.000000E+00  0.000000E+00  0.000000E+00  0.000000E+00  0.000000E+00  0.000000E+00 -1.790009E-04 -1.602570E-04  1.481142E-04  0.000000E+00  0.000000E+00  0.000000E+00
     771 -5.865923E-05  6.322705E-04  8.664227E-05  0.000000E+00  0.000000E+00  0.000000E+00  0.000000E+00  0.000000E+00  0.000000E+00 -5.865923E-05  6.322705E-04  8.664227E-05  0.000000E+00  0.000000E+00  0.000000E+00
     781  4.036219E-05  1.231885E-03  3.032517E-05  0.000000E+00  0.000000E+00  0.000000E+00  0.000000E+00  0.000000E+00  0.000000E+00  4.036219E-05  1.231885E-03  3.032517E-05  0.000000E+00  0.000000E+00  0.000000E+00
     791  1.175785E-04  1.616246E-03 -1.862469E-05  0.000000E+00  0.000000E+00  0.000000E+00  0.000000E+00  0.000000E+00  0.000000E+00  1.175785E-04  1.616246E-03 -1.862469E-05  0.000000E+00  0.000000E+00  0.000000E+00
     801  1.738002E-04  1.777714E-03 -5.824535E-05  0.000000E+00  0.000000E+00  0.000000E+00  0.000000E+00  0.000000E+00  0.000000E+00  1.738002E-04  1.777714E-03 -5.824535E-05  0.000000E+00  0.000000E+00  0.000000E+00
     811  2.101208E-04  1.721396E-03 -8.710193E-05  0.000000E+00  0.000000E+00  0.000000E+00  0.000000E+00  0.000000E+00  0.000000E+00  2.101208E-04  1.721396E-03 -8.710193E-05  0.000000E+00  0.000000E+00  0.000000E+00
     821  2.277571E-04  1.463931E-03 -1.046684E-04  0.000000E+00  0.000000E+00  0.000000E+00  0.000000E+00  0.000000E+00  0.000000E+00  2.277571E-04  1.463931E-03 -1.046684E-04  0.000000E+00  0.000000E+00  0.000000E+00
     831  2.284531E-04  1.033378E-03 -1.115331E-04  0.000000E+00  0.000000E+00  0.000000E+00  0.000000E+00  0.000000E+00  0.000000E+00  2.284531E-04  1.033378E-03 -1.115331E-04  0.000000E+00  0.000000E+00  0.000000E+00
     841  2.149738E-04  4.693498E-04 -1.092920E-04  0.000000E+00  0.000000E+00  0.000000E+00  0.000000E+00  0.000000E+00  0.000000E+00  2.149738E-04  4.693498E-04 -1.092920E-04  0.000000E+00  0.000000E+00  0.000000E+00
     851  1.913504E-04 -1.781654E-04 -1.002018E-04  0.000000E+00  0.000000E+00  0.000000E+00  0.000000E+00  0.000000E+00  0.000000E+00  1.913504E-04 -1.781654E-04 -1.002018E-04  0.000000E+00  0.000000E+00  0.000000E+00
     861  1.627222E-04 -8.528441E-04 -8.678352E-05  0.000000E+00  0.000000E+00  0.000000E+00  0.000000E+00  0.000000E+00  0.000000E+00  1.627222E-04 -8.528441E-04 -8.678352E-05  0.000000E+00  0.000000E+00  0.000000E+00
     871  1.346886E-04 -1.499661E-03 -7.151724E-05  0.000000E+00  0.000000E+00  0.000000E+00  0.000000E+00  0.000000E+00  0.000000E+00  1.346886E-04 -1.499661E-03 -7.151724E-05  0.000000E+00  0.000000E+00  0.000000E+00
     881  1.121362E-04 -2.075294E-03 -5.664507E-05  0.000000E+00  0.000000E+00  0.000000E+00  0.000000E+00  0.000000E+00  0.000000E+00  1.121362E-04 -2.075294E-03 -5.664507E-05  0.000000E+00  0.000000E+00  0.000000E+00
     891  9.768644E-05 -2.558582E-03 -4.401310E-05  0.000000E+00  0.000000E+00  0.000000E+00  0.000000E+00  0.000000E+00  0.000000E+00  9.768644E-05 -2.558582E-03 -4.401310E-05  0.000000E+00  0.000000E+00  0.000000E+00
     901  9.023336E-05 -2.957060E-03 -3.487878E-05  0.000000E+00  0.000000E+00  0.000000E+00  0.000000E+00  0.000000E+00  0.000000E+00  9.023336E-05 -2.957060E-03 -3.487878E-05  0.000000E+00  0.000000E+00  0.000000E+00
     911  8.433534E-05 -3.305789E-03 -2.966333E-05  0.000000E+00  0.000000E+00  0.000000E+00  0.000000E+00  0.000000E+00  0.000000E+00  8.433534E-05 -3.305789E-03 -2.966333E-05  0.000000E+00  0.000000E+00  0.000000E+00
     921  7.120002E-05 -3.656964E-03 -2.770374E-05  0.000000E+00  0.000000E+00  0.000000E+00  0.000000E+00  0.000000E+00  0.000000E+00  7.120002E-05 -3.656964E-03 -2.770374E-05  0.000000E+00  0.000000E+00  0.000000E+00
     931  4.145495E-05 -4.062395E-03 -2.712796E-05  0.000000E+00  0.000000E+00  0.000000E+00  0.000000E+00  0.000000E+00  0.000000E+00  4.145495E-05 -4.062395E-03 -2.712796E-05  0.000000E+00  0.000000E+00  0.000000E+00
     941 -1.108261E-05 -4.554517E-03 -2.500837E-05  0.000000E+00  0.000000E+00  0.000000E+00  0.000000E+00  0.000000E+00  0.000000E+00 -1.108261E-05 -4.554517E-03 -2.500837E-05  0.000000E+00  0.000000E+00  0.000000E+00
     951 -8.631142E-05 -5.133081E-03 -1.789713E-05  0.000000E+00  0.000000E+00  0.000000E+00  0.000000E+00  0.000000E+00  0.000000E+00 -8.631142E-05 -5.133081E-03 -1.789713E-05  0.000000E+00  0.000000E+00  0.000000E+00
     961 -1.771588E-04 -5.762991E-03 -2.698639E-06  0.000000E+00  0.000000E+00  0.000000E+00  0.000000E+00  0.000000E+00  0.000000E+00 -1.771588E-04 -5.762991E-03 -2.698639E-06  0.000000E+00  0.000000E+00  0.000000E+00
     971 -2.718991E-04 -6.384217E-03  2.234770E-05  0.000000E+00  0.000000E+00  0.000000E+00  0.000000E+00  0.000000E+00  0.000000E+00 -2.718991E-04 -6.384217E-03  2.234770E-05  0.000000E+00  0.000000E+00  0.000000E+00
     981 -3.583347E-04 -6.929610E-03  5.690333E-05  0.000000E+00  0.000000E+00  0.000000E+00  0.000000E+00  0.000000E+00  0.000000E+00 -3.583347E-04 -6.929610E-03  5.690333E-05  0.000000E+00  0.000000E+00  0.000000E+00
     991 -4.276152E-04 -7.343377E-03  9.827616E-05  0.000000E+00  0.000000E+00  0.000000E+00  0.000000E+00  0.000000E+00  0.000000E+00 -4.276152E-04 -7.343377E-03  9.827616E-05  0.000000E+00  0.000000E+00  0.000000E+00
    1001 -4.759225E-04 -7.593592E-03  1.418250E-04  0.000000E+00  0.000000E+00  0.000000E+00  0.000000E+00  0.000000E+00  0.000000E+00 -4.759225E-04 -7.593592E-03  1.418250E-04  0.000000E+00  0.000000E+00  0.000000E+00
    1011 -5.038006E-04 -7.675630E-03  1.819772E-04  0.000000E+00  0.000000E+00  0.000000E+00  0.000000E+00  0.000000E+00  0.000000E+00 -5.038006E-04 -7.675630E-03  1.819772E-04  0.000000E+00  0.000000E+00  0.000000E+00
    1021 -5.142860E-04 -7.607567E-03  2.136044E-04  0.000000E+00  0.000000E+00  0.000000E+00  0.000000E+00  0.000000E+00  0.000000E+00 -5.142860E-04 -7.607567E-03  2.136044E-04  0.000000E+00  0.000000E+00  0.000000E+00
    1031 -5.111579E-04 -7.421221E-03  2.333059E-04  0.000000E+00  0.000000E+00  0.000000E+00  0.000000E+00  0.000000E+00  0.000000E+00 -5.111579E-04 -7.421221E-03  2.333059E-04  0.000000E+00  0.000000E+00  0.000000E+00
    1041 -4.979518E-04 -7.152776E-03  2.401249E-04  0.000000E+00  0.000000E+00  0.000000E+00  0.000000E+00  0.000000E+00  0.000000E+00 -4.979518E-04 -7.152776E-03  2.401249E-04  0.000000E+00  0.000000E+00  0.000000E+00
    1051 -4.776264E-04 -6.835589E-03  2.354446E-04  0.000000E+00  0.000000E+00  0.000000E+00  0.000000E+00  0.000000E+00  0.000000E+00 -4.776264E-04 -6.835589E-03  2.354446E-04  0.000000E+00  0.000000E+00  0.000000E+00
    1061 -4.525280E-04 -6.496075E-03  2.221891E-04  0.000000E+00  0.000000E+00  0.000000E+00  0.000000E+00  0.000000E+00  0.000000E+00 -4.525280E-04 -6.496075E-03  2.221891E-04  0.000000E+00  0.000000E+00  0.000000E+00
    1071 -4.244457E-04 -6.152396E-03  2.037477E-04  0.000000E+00  0.000000E+00  0.000000E+00  0.000000E+00  0.000000E+00  0.000000E+00 -4.244457E-04 -6.152396E-03  2.037477E-04  0.000000E+00  0.000000E+00  0.000000E+00
    1081 -3.947319E-04 -5.815221E-03  1.830835E-04  0.000000E+00  0.000000E+00  0.000000E+00  0.000000E+00  0.000000E+00  0.000000E+00 -3.947319E-04 -5.815221E-03  1.830835E-04  0.000000E+00  0.000000E+00  0.000000E+00
    1091 -3.644850E-04 -5.489679E-03  1.622845E-04  0.000000E+00  0.000000E+00  0.000000E+00  0.000000E+00  0.000000E+00  0.000000E+00 -3.644850E-04 -5.489679E-03  1.622845E-04  0.000000E+00  0.000000E+00  0.000000E+00
    1101 -3.347129E-04 -5.177748E-03  1.425479E-04  0.000000E+00  0.000000E+00  0.000000E+00  0.000000E+00  0.000000E+00  0.000000E+00 -3.347129E-04 -5.177748E-03  1.425479E-04  0.000000E+00  0.000000E+00  0.000000E+00
    1111 -3.063587E-04 -4.880374E-03  1.244103E-04  0.000000E+00  0.000000E+00  0.000000E+00  0.000000E+00  0.000000E+00  0.000000E+00 -3.063587E-04 -4.880374E-03  1.244103E-04  0.000000E+00  0.000000E+00  0.000000E+00
    1121 -2.801363E-04 -4.598881E-03  1.080085E-04  0.000000E+00  0.000000E+00  0.000000E+00  0.000000E+00  0.000000E+00  0.000000E+00 -2.801363E-04 -4.598881E-03  1.080085E-04  0.000000E+00  0.000000E+00  0.000000E+00
    1131 -2.562476E-04 -4.335489E-03  9.324129E-05  0.000000E+00  0.000000E+00  0.000000E+00  0.000000E+00  0.000000E+00  0.000000E+00 -2.562476E-04 -4.335489E-03  9.324129E-05  0.000000E+00  0.000000E+00  0.000000E+00
    1141 -2.341540E-04 -4.093102E-03  7.981800E-05  0.000000E+00  0.000000E+00  0.000000E+00  0.000000E+00  0.000000E+00  0.000000E+00 -2.341540E-04 -4.093102E-03  7.981800E-05  0.000000E+00  0.000000E+00  0.000000E+00
    1151 -2.125854E-04 -3.874738E-03  6.726930E-05  0.000000E+00  0.000000E+00  0.000000E+00  0.000000E+00  0.000000E+00  0.000000E+00 -2.125854E-04 -3.874738E-03  6.726930E-05  0.000000E+00  0.000000E+00  0.000000E+00
    1161 -1.898734E-04 -3.683008E-03  5.500482E-05  0.000000E+00  0.000000E+00  0.000000E+00  0.000000E+00  0.000000E+00  0.000000E+00 -1.898734E-04 -3.683008E-03  5.500482E-05  0.000000E+00  0.000000E+00  0.000000E+00
    1171 -1.645376E-04 -3.519941E-03  4.245716E-05  0.000000E+00  0.000000E+00  0.000000E+00  0.000000E+00  0.000000E+00  0.000000E+00 -1.645376E-04 -3.519941E-03  4.245716E-05  0.000000E+00  0.000000E+00  0.000000E+00
    1181 -1.359107E-04 -3.387180E-03  2.927778E-05  0.000000E+00  0.000000E+00  0.000000E+00  0.000000E+00  0.000000E+00  0.000000E+00 -1.359107E-04 -3.387180E-03  2.927778E-05  0.000000E+00  0.000000E+00  0.000000E+00
    1191 -1.045378E-04 -3.286379E-03  1.549549E-05  0.000000E+00  0.000000E+00  0.000000E+00  0.000000E+00  0.000000E+00  0.000000E+00 -1.045378E-04 -3.286379E-03  1.549549E-05  0.000000E+00  0.000000E+00  0.000000E+00
    1201 -7.220241E-05 -3.219497E-03  1.573981E-06  0.000000E+00  0.000000E+00  0.000000E+00  0.000000E+00  0.000000E+00  0.000000E+00 -7.220241E-05 -3.219497E-03  1.573981E-06  0.000000E+00  0.000000E+00  0.000000E+00
    1211 -4.154079E-05 -3.188760E-03 -1.166804E-05  0.000000E+00  0.000000E+00  0.000000E+00  0.000000E+00  0.000000E+00  0.000000E+00 -4.154079E-05 -3.188760E-03 -1.166804E-05  0.000000E+00  0.000000E+00  0.000000E+00
    1221 -1.542441E-05 -3.196239E-03 -2.323659E-05  0.000000E+00  0.000000E+00  0.000000E+00  0.000000E+00  0.000000E+00  0.000000E+00 -1.542441E-05 -3.196239E-03 -2.323659E-05  0.000000E+00  0.000000E+00  0.000000E+00
    1231  3.634492E-06 -3.243200E-03 -3.215598E-05  0.000000E+00  0.000000E+00  0.000000E+00  0.000000E+00  0.000000E+00  0.000000E+00  3.634492E-06 -3.243200E-03 -3.215598E-05  0.000000E+00  0.000000E+00  0.000000E+00
    1241  1.388359E-05 -3.329465E-03 -3.761851E-05  0.000000E+00  0.000000E+00  0.000000E+00  0.000000E+00  0.000000E+00  0.000000E+00  1.388359E-05 -3.329465E-03 -3.761851E-05  0.000000E+00  0.000000E+00  0.000000E+00
    1251  1.448274E-05 -3.453001E-03 -3.907828E-05  0.000000E+00  0.000000E+00  0.000000E+00  0.000000E+00  0.000000E+00  0.000000E+00  1.448274E-05 -3.453001E-03 -3.907828E-05  0.000000E+00  0.000000E+00  0.000000E+00
    1261  5.456361E-06 -3.609826E-03 -3.630190E-05  0.000000E+00  0.000000E+00  0.000000E+00  0.000000E+00  0.000000E+00  0.000000E+00  5.456361E-06 -3.609826E-03 -3.630190E-05  0.000000E+00  0.000000E+00  0.000000E+00
    1271 -1.244830E-05 -3.794212E-03 -2.939384E-05  0.000000E+00  0.000000E+00  0.000000E+00  0.000000E+00  0.000000E+00  0.000000E+00 -1.244830E-05 -3.794212E-03 -2.939384E-05  0.000000E+00  0.000000E+00  0.000000E+00
    1281 -3.790498E-05 -3.999037E-03 -1.880257E-05  0.000000E+00  0.000000E+00  0.000000E+00  0.000000E+00  0.000000E+00  0.000000E+00 -3.790498E-05 -3.999037E-03 -1.880257E-05  0.000000E+00  0.000000E+00  0.000000E+00
    1291 -6.911927E-05 -4.216199E-03 -5.298189E-06  0.000000E+00  0.000000E+00  0.000000E+00  0.000000E+00  0.000000E+00  0.000000E+00 -6.911927E-05 -4.216199E-03 -5.298189E-06  0.000000E+00  0.000000E+00  0.000000E+00
    1301 -1.039167E-04 -4.437025E-03  1.008640E-05  0.000000E+00  0.000000E+00  0.000000E+00  0.000000E+00  0.000000E+00  0.000000E+00 -1.039167E-04 -4.437025E-03  1.008640E-05  0.000000E+00  0.000000E+00  0.000000E+00
    1311 -1.398245E-04 -4.652711E-03  2.613757E-05  0.000000E+00  0.000000E+00  0.000000E+00  0.000000E+00  0.000000E+00  0.000000E+00 -1.398245E-04 -4.652711E-03  2.613757E-05  0.000000E+00  0.000000E+00  0.000000E+00
    1321 -1.741453E-04 -4.854853E-03  4.153183E-05  0.000000E+00  0.000000E+00  0.000000E+00  0.000000E+00  0.000000E+00  0.000000E+00 -1.741453E-04 -4.854853E-03  4.153183E-05  0.000000E+00  0.000000E+00  0.000000E+00
    1331 -2.040107E-04 -5.036111E-03  5.486436E-05  0.000000E+00  0.000000E+00  0.000000E+00  0.000000E+00  0.000000E+00  0.000000E+00 -2.040107E-04 -5.036111E-03  5.486436E-05  0.000000E+00  0.000000E+00  0.000000E+00
    1341 -2.264310E-04 -5.190969E-03  6.464067E-05  0.000000E+00  0.000000E+00  0.000000E+00  0.000000E+00  0.000000E+00  0.000000E+00 -2.264310E-04 -5.190969E-03  6.464067E-05  0.000000E+00  0.000000E+00  0.000000E+00
    1351 -2.384089E-04 -5.316451E-03  6.929015E-05  0.000000E+00  0.000000E+00  0.000000E+00  0.000000E+00  0.000000E+00  0.000000E+00 -2.384089E-04 -5.316451E-03  6.929015E-05  0.000000E+00  0.000000E+00  0.000000E+00