 variables = x,y,"-cp"
 zone t="Cp_jmin_000"
  0.999901036689427      -1.438201154477405E-005 -0.172479594063180     
  0.999694849639698      -4.433878394527676E-005 -0.170511974143605     
  0.999471457044767      -7.678516570916535E-005 -0.169867203298514     
  0.999229433009151      -1.119351872218389E-004 -0.168797625684569     
  0.998967231722420      -1.499986690511435E-004 -0.167874295088374     
  0.998683181823514      -1.912078565131687E-004 -0.166860573834125     
  0.998375479381158      -2.358394108184670E-004 -0.165872707069180     
  0.998042172631888      -2.841848128453211E-004 -0.164861708697167     
  0.997681144537264      -3.365111952199675E-004 -0.163827132606190     
  0.997290110610486      -3.931333799421472E-004 -0.162794235853651     
  0.996866609714277      -4.544436015688823E-004 -0.161726724991743     
  0.996407979180273      -5.208395406005970E-004 -0.160631663173572     
  0.995911330769309      -5.926648277141595E-004 -0.159524152935500     
  0.995373553322796      -6.703413130624667E-004 -0.158368456744634     
  0.994791302447734      -7.544191472102226E-004 -0.157185639913973     
  0.994160961879245      -8.454387107432190E-004 -0.155952563161233     
  0.993478605833100      -9.438069532774860E-004 -0.154677696439187     
  0.992740024637728      -1.050120877354764E-003 -0.153350722604447     
  0.991940704001005      -1.165177846065212E-003 -0.151954243022249     
  0.991075739240897      -1.289542745202006E-003 -0.150496268170516     
  0.990139854226810      -1.423850871937378E-003 -0.148966778045737     
  0.989127407965195      -1.569033645803364E-003 -0.147341843878536     
  0.988032309338146      -1.725912456346903E-003 -0.145631227785050     
  0.986847988777956      -1.895197373064347E-003 -0.143821557340059     
  0.985567445047636      -2.078017021053428E-003 -0.141886848522432     
  0.984183134935553      -2.275355794470929E-003 -0.139839479340409     
  0.982686950651476      -2.488111897379464E-003 -0.137659110101017     
  0.981070283856444      -2.717765049792072E-003 -0.135309389435974     
  0.979323822809217      -2.965169206971251E-003 -0.132842461203860     
  0.977437674783382      -3.231638924822782E-003 -0.130161401169519     
  0.975401311643326      -3.518778878205071E-003 -0.127332817734962     
  0.973203434186103      -3.827740415357508E-003 -0.124290511359880     
  0.970832089848265      -4.160252963783775E-003 -0.121036723590570     
  0.968274510352013      -4.517656241893913E-003 -0.117594750909677     
  0.965517205518267      -4.901735795903623E-003 -0.113865853102646     
  0.962545856985965      -5.314096152677030E-003 -0.109968751752898     
  0.959345348602296      -5.756486401209208E-003 -0.105753828633299     
  0.955899768014636      -6.230865535969582E-003 -0.101312632247666     
  0.952192326065171      -6.738827172269944E-003 -9.662103953483836E-002
  0.948205528126510      -7.282785808824490E-003 -9.158193541360493E-002
  0.943920927438716      -7.864031637407815E-003 -8.637034359268059E-002
  0.939319436050898      -8.484788640032118E-003 -8.078303631763939E-002
  0.934381256447932      -9.147375810369188E-003 -7.494974731812354E-002
  0.929085760411976      -9.852845123685342E-003 -6.886473701647233E-002
  0.923411957576804      -1.060387854510685E-002 -6.244807321521995E-002
  0.917338301331815      -1.140259645894358E-002 -5.574597079286336E-002
  0.910842672091623      -1.224945780384571E-002 -4.885671883400411E-002
  0.903902934488028      -1.314637863285233E-002 -4.163047693274580E-002
  0.896496996320902      -1.409587524212469E-002 -3.418833422719914E-002
  0.888602757596857      -1.509910284169805E-002 -2.646841484976115E-002
  0.880198410926427      -1.615632802232875E-002 -1.852995409692149E-002
  0.871262801958185      -1.726768552580072E-002 -1.041789853418740E-002
  0.861775847922212      -1.843419903075212E-002 -2.069787354868513E-003
  0.851718685983071      -1.965640415779817E-002  6.471272699219099E-003
  0.841073968747992      -2.093388515101843E-002  1.517049634786427E-002
  0.829826304610176      -2.226578772895235E-002  2.407859213875763E-002
  0.817962649142221      -2.365078170607101E-002  3.313109045604290E-002
  0.805472711125871      -2.508702431525892E-002  4.233639394019861E-002
  0.792349366039704      -2.657212500253204E-002  5.171844373777668E-002
  0.778589068327765      -2.810311264980000E-002  6.123059116424501E-002
  0.764192252334772      -2.967640636653989E-002  7.089837143118682E-002
  0.749163710505883      -3.128779116418917E-002  8.078906148952347E-002
  0.733512786417905      -3.293094272277818E-002  9.071807392949638E-002
  0.717253865540819      -3.459924250550806E-002  0.100834355035918     
  0.700406774779677      -3.628742751082444E-002  0.111115264936243     
  0.682996682429761      -3.798917514195270E-002  0.121543878113187     
  0.665054153964236      -3.969693207546836E-002  0.132294112977917     
  0.646614951929252      -4.139990135340135E-002  0.143079875211806     
  0.627720189103518      -4.308704309437720E-002  0.154038142361673     
  0.608416437015914      -4.475112151366507E-002  0.165193304369980     
  0.588754938035307      -4.638417730094366E-002  0.176744330206746     
  0.568790597199374      -4.797059236360566E-002  0.188133905944064     
  0.548582355683681      -4.949860753708847E-002  0.199808814138303     
  0.528192702380974      -5.096299098463154E-002  0.211747775156899     
  0.507685801203611      -5.235007411813461E-002  0.223718585078668     
  0.487127298884429      -5.364551210604034E-002  0.235625768703175     
  0.466584070280482      -5.484365745587879E-002  0.247785422760260     
  0.446122642496232      -5.593656205053190E-002  0.260052023347122     
  0.425808112005379      -5.690873480176196E-002  0.271861535786482     
  0.405704258511259      -5.775538187230993E-002  0.283772113673540     
  0.385872439408809      -5.847730301479206E-002  0.295947775230103     
  0.366370107700743      -5.905943927397766E-002  0.307079370013651     
  0.347251138959864      -5.949678417017554E-002  0.318361160034272     
  0.328565272432459      -5.979681865774525E-002  0.329028114465405     
  0.310357084272810      -5.995936260311839E-002  0.339825816950511     
  0.292666038436822      -5.997424577553107E-002  0.349090397412140     
  0.275526342270472      -5.984333551911108E-002  0.358169623177624     
  0.258966719358373      -5.958007639650599E-002  0.366339801816964     
  0.243010402247484      -5.918846746271154E-002  0.373781341196687     
  0.227675313889136      -5.867348200350751E-002  0.380277544426490     
  0.212974332671116      -5.803948207164759E-002  0.385806804969358     
  0.198915682585232      -5.728881518763976E-002  0.389724382321877     
  0.185502688789305      -5.643128510725968E-002  0.392591461816376     
  0.172734217488895      -5.548008027404536E-002  0.394012351798766     
  0.160605523034368      -5.444353102461935E-002  0.394066063976583     
  0.149108410853820      -5.333022867657388E-002  0.392684622708093     
  0.138231637096210      -5.214893011788994E-002  0.389734333100067     
  0.127961302815210      -5.090847827795564E-002  0.385302119676292     
  0.118281233308736      -4.961774151957353E-002  0.379216539549894     
  0.109173334039380      -4.828557488582750E-002  0.371848420077195     
  0.100619352473058      -4.691268280442117E-002  0.362318162668522     
  9.259932167578322E-002 -4.550404986317674E-002  0.351377470680164     
  8.509082500320453E-002 -4.407374508092853E-002  0.338867031701312     
  7.807129914897593E-002 -4.263126142393887E-002  0.325053003895177     
  7.151779012549453E-002 -4.118490260629624E-002  0.310058139632374     
  6.540868179836479E-002 -3.973604924040557E-002  0.294027606810253     
  5.972538454240184E-002 -3.827601692707851E-002  0.276013161869476     
  5.444447767232785E-002 -3.681652512757678E-002  0.257343064892647     
  4.953923882882172E-002 -3.537963756867354E-002  0.238737913119617     
  4.499484238040496E-002 -3.394792731793951E-002  0.217948142906340     
  4.079283231808140E-002 -3.251979480296933E-002  0.196780651649272     
  3.690382155082184E-002 -3.112647535564832E-002  0.177019339473319     
  3.331897338690382E-002 -2.974308438615302E-002  0.153689832712285     
  3.001992853400259E-002 -2.837272662995695E-002  0.132903641188785     
  2.698146395291323E-002 -2.703744387458767E-002  0.110787026690387     
  2.419521817029124E-002 -2.572017851393302E-002  8.827218323133024E-002
  2.163886985022512E-002 -2.443602799853272E-002  6.781056081809633E-002
  1.930380911958252E-002 -2.317528402219218E-002  4.458544941212295E-002
  1.717159457934081E-002 -2.194557498080656E-002  2.527490709723645E-002
  1.523173633144437E-002 -2.074551827938654E-002  2.607764243802269E-003
  1.347124070536088E-002 -1.957452573790441E-002 -1.624188103209256E-002
  1.187502616326441E-002 -1.844066995672238E-002 -3.700936046262360E-002
  1.043809851605715E-002 -1.733430489920384E-002 -5.617553967982003E-002
  9.136461311411770E-003 -1.627385726785402E-002 -7.388061292646642E-002
  7.977160035893105E-003 -1.524010552122804E-002 -9.349197669143061E-002
  6.935962262663908E-003 -1.424726689067101E-002 -0.109009414073344     
  6.007649260728942E-003 -1.329584607266419E-002 -0.126768309322165     
  5.197942384246534E-003 -1.236975213659182E-002 -0.142829682294328     
  4.463145226993981E-003 -1.150015319028689E-002 -0.156841215924896     
  3.822031769330381E-003 -1.066772931847954E-002 -0.172306263161146     
  3.279846165163414E-003 -9.860750285176443E-003 -0.185999831124795     
  2.790912267504275E-003 -9.105798252013814E-003 -0.198956220750284     
  2.350526001678399E-003 -8.401803031976705E-003 -0.210429868123418     
  1.991903883693968E-003 -7.724795289140971E-003 -0.223065621282769     
  1.697401034548296E-003 -7.079089817105916E-003 -0.233723547616727     
  1.425328203884413E-003 -6.482562768008258E-003 -0.244122018781638     
  1.174003083752484E-003 -5.931525636110130E-003 -0.252813982780884     
  9.709265006891954E-004 -5.412089117667584E-003 -0.262000562256999     
  8.238867579573039E-004 -4.917756269746139E-003 -0.270432439472674     
  6.995521017549855E-004 -4.457114441382819E-003 -0.278211887121399     
  5.847380853111206E-004 -4.031745199436594E-003 -0.285230299672691     
  4.787230618852334E-004 -3.638974947630218E-003 -0.291500269484793     
  3.808389906723164E-004 -3.276328691885235E-003 -0.297206321729526     
  2.904676175868870E-004 -2.941515890682194E-003 -0.301970358444831     
  2.333762907558157E-004 -2.627730745651859E-003 -0.307132038066158     
  2.071227178881418E-004 -2.333353192432223E-003 -0.311637631922157     
  1.829994274494817E-004 -2.061590841441674E-003 -0.315792836646819     
  1.607319663670115E-004 -1.810735445501646E-003 -0.319387922426253     
  1.401783810204282E-004 -1.579187817730839E-003 -0.322562679332063     
  1.212074545433595E-004 -1.365469726784322E-003 -0.325333874767562     
  1.036979128065108E-004 -1.168214951806617E-003 -0.327684487524207     
  8.753768641556192E-005 -9.861609684275415E-004 -0.329706118430845     
  7.262322518397646E-005 -8.181412259154610E-004 -0.331406955643205     
  5.885886169931798E-005 -6.630779773923135E-004 -0.332770919366461     
  4.615622076353798E-005 -5.199756268522191E-004 -0.333875691914386     
  3.443367165412159E-005 -3.879145585791283E-004 -0.334704081331887     
  2.361582031673581E-005 -2.660454164071133E-004 -0.335259999154301     
  1.363303875945299E-005 -1.535838020872810E-004 -0.335637332502514     
  4.421029079937355E-006 -4.980536380928741E-005 -0.335659643250356     
  4.421029079937355E-006  4.980536380925416E-005 -0.335659675360637     
  1.363303875945299E-005  1.535838020872856E-004 -0.335637427211411     
  2.361582031673581E-005  2.660454164071646E-004 -0.335260157061849     
  3.443367165412159E-005  3.879145585791394E-004 -0.334704302569143     
  4.615622076353798E-005  5.199756268521838E-004 -0.333875976746577     
  5.885886169942900E-005  6.630779773923243E-004 -0.332771267862411     
  7.262322518408748E-005  8.181412259154934E-004 -0.331407367856649     
  8.753768641556192E-005  9.861609684275543E-004 -0.329706594356025     
  1.036979128065108E-004  1.168214951806632E-003 -0.327685027048411     
  1.212074545433595E-004  1.365469726784401E-003 -0.325334477771079     
  1.401783810204282E-004  1.579187817730990E-003 -0.322563345597710     
  1.607319663670115E-004  1.810735445501831E-003 -0.319388651735979     
  1.829994274494817E-004  2.061590841441825E-003 -0.315793628565904     
  2.071227178881418E-004  2.333353192432302E-003 -0.311638486476934     
  2.333762907559267E-004  2.627730745651989E-003 -0.307132953534694     
  2.904676175869980E-004  2.941515890682324E-003 -0.301971336492466     
  3.808389906723164E-004  3.276328691885331E-003 -0.297207357499020     
  4.787230618852334E-004  3.638974947630303E-003 -0.291501363785557     
  5.847380853111206E-004  4.031745199436690E-003 -0.285231450945978     
  6.995521017549855E-004  4.457114441382969E-003 -0.278213094615529     
  8.238867579573039E-004  4.917756269746217E-003 -0.270433702012376     
  9.709265006891954E-004  5.412089117667598E-003 -0.262001878311463     
  1.174003083752484E-003  5.931525636110182E-003 -0.252815351075690     
  1.425328203884413E-003  6.482562768008291E-003 -0.244123434253918     
  1.697401034548296E-003  7.079089817105910E-003 -0.233725010415151     
  1.991903883693968E-003  7.724795289140960E-003 -0.223067128075118     
  2.350526001678399E-003  8.401803031976737E-003 -0.210431418606887     
  2.790912267504275E-003  9.105798252013898E-003 -0.198957808052351     
  3.279846165163414E-003  9.860750285176526E-003 -0.186001453568462     
  3.822031769330492E-003  1.066772931847965E-002 -0.172307917350413     
  4.463145226994203E-003  1.150015319028706E-002 -0.156842899177626     
  5.197942384246756E-003  1.236975213659205E-002 -0.142831386909220     
  6.007649260729164E-003  1.329584607266442E-002 -0.126770033428559     
  6.935962262664130E-003  1.424726689067121E-002 -0.109011153183902     
  7.977160035893327E-003  1.524010552122821E-002 -9.349372224565311E-002
  9.136461311411881E-003  1.627385726785411E-002 -7.388236358665790E-002
  1.043809851605715E-002  1.733430489920386E-002 -5.617728608975314E-002
  1.187502616326441E-002  1.844066995672239E-002 -3.701109803262481E-002
  1.347124070536088E-002  1.957452573790444E-002 -1.624360373621458E-002
  1.523173633144437E-002  2.074551827938657E-002  2.606065163663907E-003
  1.717159457934081E-002  2.194557498080656E-002  2.527323578127971E-002
  1.930380911958240E-002  2.317528402219212E-002  4.458381635208863E-002
  2.163886985022490E-002  2.443602799853265E-002  6.780897032230615E-002
  2.419521817029113E-002  2.572017851393298E-002  8.827064548552999E-002
  2.698146395291312E-002  2.703744387458762E-002  0.110785547443762     
  3.001992853400237E-002  2.837272662995684E-002  0.132902229006732     
  3.331897338690348E-002  2.974308438615288E-002  0.153688495426649     
  3.690382155082150E-002  3.112647535564820E-002  0.177018083451655     
  4.079283231808117E-002  3.251979480296922E-002  0.196779486366508     
  4.499484238040474E-002  3.394792731793937E-002  0.217947074015469     
  4.953923882882139E-002  3.537963756867342E-002  0.238736948166163     
  5.444447767232741E-002  3.681652512757666E-002  0.257342211049099     
  5.972538454240139E-002  3.827601692707838E-002  0.276012424909775     
  6.540868179836423E-002  3.973604924040544E-002  0.294026992787606     
  7.151779012549386E-002  4.118490260629609E-002  0.310057654249461     
  7.807129914897515E-002  4.263126142393869E-002  0.325052652056801     
  8.509082500320364E-002  4.407374508092836E-002  0.338866817670732     
  9.259932167578233E-002  4.550404986317659E-002  0.351377398287910     
  0.100619352473057       4.691268280442101E-002  0.362318235257984     
  0.109173334039379       4.828557488582733E-002  0.371848640120935     
  0.118281233308735       4.961774151957337E-002  0.379216909400806     
  0.127961302815209       5.090847827795549E-002  0.385302640934431     
  0.138231637096209       5.214893011788979E-002  0.389735006730183     
  0.149108410853819       5.333022867657373E-002  0.392685449559826     
  0.160605523034367       5.444353102461922E-002  0.394067044224646     
  0.172734217488894       5.548008027404523E-002  0.394013484898436     
  0.185502688789304       5.643128510725957E-002  0.392592746823955     
  0.198915682585230       5.728881518763965E-002  0.389725818535251     
  0.212974332671114       5.803948207164750E-002  0.385808391466319     
  0.227675313889134       5.867348200350744E-002  0.380279280074489     
  0.243010402247482       5.918846746271147E-002  0.373783224546323     
  0.258966719358371       5.958007639650598E-002  0.366341832015926     
  0.275526342270470       5.984333551911108E-002  0.358171798852582     
  0.292666038436820       5.997424577553106E-002  0.349092717181381     
  0.310357084272807       5.995936260311840E-002  0.339828279436148     
  0.328565272432456       5.979681865774529E-002  0.329030717699183     
  0.347251138959861       5.949678417017558E-002  0.318363902719693     
  0.366370107700740       5.905943927397773E-002  0.307082250694905     
  0.385872439408806       5.847730301479220E-002  0.295950792447299     
  0.405704258511256       5.775538187231009E-002  0.283775265616301     
  0.425808112005375       5.690873480176212E-002  0.271864820998956     
  0.446122642496228       5.593656205053207E-002  0.260055440271528     
  0.466584070280478       5.484365745587899E-002  0.247788969486434     
  0.487127298884425       5.364551210604056E-002  0.235629443332854     
  0.507685801203607       5.235007411813486E-002  0.223722385803797     
  0.528192702380970       5.096299098463181E-002  0.211751699782492     
  0.548582355683677       4.949860753708876E-002  0.199812860264859     
  0.568790597199370       4.797059236360596E-002  0.188138071346134     
  0.588754938035303       4.638417730094397E-002  0.176748612354660     
  0.608416437015910       4.475112151366539E-002  0.165197700255625     
  0.627720189103514       4.308704309437753E-002  0.154042649366391     
  0.646614951929248       4.139990135340171E-002  0.143084490280169     
  0.665054153964232       3.969693207546873E-002  0.132298832920528     
  0.682996682429757       3.798917514195309E-002  0.121548699603007     
  0.700406774779673       3.628742751082484E-002  0.111120184619401     
  0.717253865540815       3.459924250550842E-002  0.100839369439315     
  0.733512786417902       3.293094272277854E-002  9.072317949277098E-002
  0.749163710505879       3.128779116418955E-002  8.079425445539545E-002
  0.764192252334769       2.967640636654027E-002  7.090364802098015E-002
  0.778589068327761       2.810311264980035E-002  6.123594753859751E-002
  0.792349366039701       2.657212500253238E-002  5.172387592746097E-002
  0.805472711125868       2.508702431525927E-002  4.234189792591381E-002
  0.817962649142218       2.365078170607138E-002  3.313666204699595E-002
  0.829826304610173       2.226578772895270E-002  2.408422702494040E-002
  0.841073968747989       2.093388515101875E-002  1.517619009124749E-002
  0.851718685983068       1.965640415779848E-002  6.477020632642772E-003
  0.861775847922210       1.843419903075244E-002 -2.063990056891285E-003
  0.871262801958183       1.726768552580103E-002 -1.041205691572600E-002
  0.880198410926424       1.615632802232904E-002 -1.852407347023322E-002
  0.888602757596855       1.509910284169834E-002 -2.646250076604595E-002
  0.896496996320900       1.409587524212496E-002 -3.418239250264588E-002
  0.903902934488026       1.314637863285260E-002 -4.162451361143793E-002
  0.910842672091621       1.224945780384598E-002 -4.885074021755997E-002
  0.917338301331813       1.140259645894383E-002 -5.573998340853992E-002
  0.923411957576802       1.060387854510708E-002 -6.244208390207096E-002
  0.929085760411975       9.852845123685578E-003 -6.885875271751463E-002
  0.934381256447930       9.147375810369410E-003 -7.494377517448525E-002
  0.939319436050896       8.484788640032329E-003 -8.077708364611746E-002
  0.943920927438715       7.864031637408016E-003 -8.636441781392667E-002
  0.948205528126508       7.282785808824687E-003 -9.157604396089525E-002
  0.952192326065169       6.738827172270148E-003 -9.661519001580432E-002
  0.955899768014634       6.230865535969765E-003 -0.101306832141928     
  0.959345348602295       5.756486401209352E-003 -0.105748085475848     
  0.962545856985963       5.314096152677136E-003 -0.109963073030018     
  0.965517205518266       4.901735795903727E-003 -0.113860246152480     
  0.968274510352011       4.517656241894034E-003 -0.117589223070005     
  0.970832089848264       4.160252963783896E-003 -0.121031281953553     
  0.973203434186103       3.827740415357626E-003 -0.124285162970188     
  0.975401311643325       3.518778878205195E-003 -0.127327569435977     
  0.977437674783382       3.231638924822898E-003 -0.130156259624322     
  0.979323822809216       2.965169206971359E-003 -0.132837432915391     
  0.981070283856443       2.717765049792180E-003 -0.135304480713757     
  0.982686950651475       2.488111897379563E-003 -0.137654327060780     
  0.984183134935553       2.275355794471010E-003 -0.139834827885686     
  0.985567445047635       2.078017021053502E-003 -0.141882334373599     
  0.986847988777955       1.895197373064412E-003 -0.143817185978348     
  0.988032309338146       1.725912456346964E-003 -0.145627004535872     
  0.989127407965195       1.569033645803426E-003 -0.147337773798233     
  0.990139854226809       1.423850871937428E-003 -0.148962865961090     
  0.991075739240897       1.289542745202041E-003 -0.150492518766822     
  0.991940704001005       1.165177846065241E-003 -0.151950660579435     
  0.992740024637728       1.050120877354804E-003 -0.153347311266274     
  0.993478605833100       9.438069532775259E-004 -0.154674460037983     
  0.994160961879245       8.454387107432533E-004 -0.155949505084716     
  0.994791302447733       7.544191472102573E-004 -0.157182763434583     
  0.995373553322796       6.703413130624964E-004 -0.158365764573750     
  0.995911330769309       5.926648277141797E-004 -0.159521647350979     
  0.996407979180273       5.208395406006104E-004 -0.160629346313755     
  0.996866609714277       4.544436015688968E-004 -0.161724598148725     
  0.997290110610486       3.931333799421647E-004 -0.162792300063780     
  0.997681144537264       3.365111952199938E-004 -0.163825389072415     
  0.998042172631888       2.841848128453584E-004 -0.164860157223778     
  0.998375479381157       2.358394108185026E-004 -0.165871348090347     
  0.998683181823514       1.912078565131975E-004 -0.166859414898242     
  0.998967231722420       1.499986690511828E-004 -0.167873338466704     
  0.999229433009151       1.119351872218831E-004 -0.168796859280124     
  0.999471457044767       7.678516570920785E-005 -0.169866620105002     
  0.999694849639698       4.433878394532627E-005 -0.170511601145051     
  0.999901036689427       1.438201154480178E-005 -0.172479402583280     
