 variables=iter,pressure
 zone t="error", f=point
       1,  0.000000
      11, -0.135465
      21, -0.247239
      31, -0.267573
      41, -0.240049
      51, -0.221183
      61, -0.237553
      71, -0.268453
      81, -0.272588
      91, -0.265483
     101, -0.264944
     111, -0.262384
     121, -0.263737
     131, -0.268093
     141, -0.268688
     151, -0.266710
     161, -0.268084
     171, -0.276790
     181, -0.292919
     191, -0.313938
     201, -0.336303
     211, -0.356956
     221, -0.374432
     231, -0.388365
     241, -0.398442
     251, -0.404592
     261, -0.407466
     271, -0.408321
     281, -0.408828
     291, -0.410566
     301, -0.414275
     311, -0.419739
     321, -0.426264
     331, -0.433173
     341, -0.440268
     351, -0.447855
     361, -0.455645
     371, -0.461589
     381, -0.463308
     391, -0.462368
     401, -0.465157
     411, -0.475658
     421, -0.489627
     431, -0.500572
     441, -0.507511
     451, -0.513323
     461, -0.520231
     471, -0.528361
     481, -0.536714
     491, -0.544461
     501, -0.551467
     511, -0.558210
     521, -0.565349
     531, -0.573200
     541, -0.581467
     551, -0.589410
     561, -0.596563
     571, -0.603477
     581, -0.611176
     591, -0.619655
     601, -0.627852
     611, -0.635175
     621, -0.642017
     631, -0.649000
     641, -0.656457
     651, -0.664422
     661, -0.672672
     671, -0.680823
     681, -0.688526
     691, -0.695646
     701, -0.702259
     711, -0.708516
     721, -0.714533
     731, -0.720408
     741, -0.726293
     751, -0.732415
     761, -0.739023
     771, -0.746280
     781, -0.754166
     791, -0.762427
     801, -0.770599
     811, -0.778197
     821, -0.784862
     831, -0.790524
     841, -0.795513
     851, -0.800466
     861, -0.806256
     871, -0.813700
     881, -0.822911
     891, -0.832933
     901, -0.842167
     911, -0.849104
     921, -0.852761
     931, -0.852982
     941, -0.850901
     951, -0.848960
     961, -0.849812
     971, -0.854762
     981, -0.862987
     991, -0.872138
    1001, -0.879942
    1011, -0.885452
    1021, -0.889133
    1031, -0.892208
    1041, -0.896023
    1051, -0.901547
    1061, -0.908910
    1071, -0.917174
    1081, -0.924678
    1091, -0.929949
    1101, -0.932560
    1111, -0.933201
    1121, -0.933126
    1131, -0.933460
    1141, -0.934745
    1151, -0.936920
    1161, -0.939649
    1171, -0.942624
    1181, -0.945494
    1191, -0.947623
    1201, -0.948220
    1211, -0.947051
    1221, -0.945095
    1231, -0.944346
    1241, -0.946868
    1251, -0.953871
    1261, -0.965215
    1271, -0.979183
    1281, -0.992443
    1291, -1.000653
    1301, -1.000313
    1311, -0.991072
    1321, -0.976194
    1331, -0.960567
    1341, -0.948312
    1351, -0.941673
    1361, -0.940963
    1371, -0.944934
    1381, -0.951364
    1391, -0.957809
    1401, -0.962357
    1411, -0.964045
    1421, -0.962856
    1431, -0.959519
    1441, -0.955386
    1451, -0.952209
    1461, -0.951458
    1471, -0.953092
    1481, -0.954456
    1491, -0.950999
    1501, -0.939920
    1511, -0.923705
    1521, -0.908616
    1531, -0.899771
    1541, -0.898005
    1551, -0.900143
    1561, -0.902014
    1571, -0.902254
    1581, -0.903392
    1591, -0.909011
    1601, -0.919886
    1611, -0.931765
    1621, -0.936538
    1631, -0.928127
    1641, -0.908507
    1651, -0.885651
    1661, -0.866808
    1671, -0.855303
    1681, -0.851211
    1691, -0.853024
    1701, -0.858808
    1711, -0.866668
    1721, -0.874814
    1731, -0.881613
    1741, -0.885719
    1751, -0.886249
    1761, -0.882949
    1771, -0.876286
    1781, -0.867255
    1791, -0.856964
    1801, -0.846397
    1811, -0.836644
    1821, -0.829304
    1831, -0.826479
    1841, -0.830178
    1851, -0.841394
    1861, -0.859235
    1871, -0.880311
    1881, -0.898835
    1891, -0.908272
    1901, -0.904584
    1911, -0.888639
    1921, -0.865337
    1931, -0.840756
    1941, -0.820137
    1951, -0.807313
    1961, -0.804826
    1971, -0.814103
    1981, -0.835450
    1991, -0.867679
    2001, -0.907208
    2011, -0.946810
    2021, -0.975701
    2031, -0.984240
    2041, -0.971458
    2051, -0.945478
    2061, -0.916138
    2071, -0.889976
    2081, -0.870072
    2091, -0.857426
    2101, -0.852055
    2111, -0.853531
    2121, -0.861160
    2131, -0.874015
    2141, -0.890956
    2151, -0.910706
    2161, -0.931964
    2171, -0.953434
    2181, -0.973636
    2191, -0.990541
    2201, -1.001420
    2211, -1.003542
    2221, -0.995750
    2231, -0.979672
    2241, -0.959213
    2251, -0.938819
    2261, -0.922077
    2271, -0.911254
    2281, -0.907459
    2291, -0.910940
    2301, -0.921322
    2311, -0.937716
    2321, -0.958731
    2331, -0.982400
    2341, -1.006132
    2351, -1.026817
    2361, -1.041363
    2371, -1.047658
    2381, -1.045511
    2391, -1.036778
    2401, -1.024548
    2411, -1.012025
    2421, -1.001754
    2431, -0.995319
    2441, -0.993357
    2451, -0.995740
    2461, -1.001850
    2471, -1.010903
    2481, -1.022200
    2491, -1.035176
    2501, -1.049194
    2511, -1.063212
    2521, -1.075593
    2531, -1.084341
    2541, -1.087843
    2551, -1.085720
    2561, -1.079140
    2571, -1.070338
    2581, -1.061694
    2591, -1.055338
    2601, -1.052384
    2611, -1.053412
    2621, -1.058460
    2631, -1.067172
    2641, -1.078924
    2651, -1.092849
    2661, -1.107810
    2671, -1.122292
    2681, -1.134362
    2691, -1.141878
    2701, -1.143108
    2711, -1.137598
    2721, -1.126645
    2731, -1.112986
    2741, -1.099803
    2751, -1.089872
    2761, -1.085105
    2771, -1.086470
    2781, -1.094044
    2791, -1.107092
    2801, -1.124068
    2811, -1.142610
    2821, -1.159680
    2831, -1.172103
    2841, -1.177596
    2851, -1.175778
    2861, -1.168324
    2871, -1.158086
    2881, -1.147879
    2891, -1.139724
    2901, -1.134687
    2911, -1.133064
    2921, -1.134690
    2931, -1.139186
    2941, -1.146070
    2951, -1.154689
    2961, -1.164072
    2971, -1.172857
    2981, -1.179501
    2991, -1.182795
    3001, -1.182474
    3011, -1.179453
    3021, -1.175486
    3031, -1.172480
    3041, -1.171862
    3051, -1.174219
    3061, -1.179167
    3071, -1.185403
    3081, -1.190935
    3091, -1.193597
    3101, -1.191855
    3111, -1.185508
    3121, -1.175923
    3131, -1.165539
    3141, -1.157021
    3151, -1.152562
    3161, -1.153468
    3171, -1.159966
    3181, -1.171130
    3191, -1.184934
    3201, -1.198585
    3211, -1.209322
    3221, -1.215490
    3231, -1.217196
    3241, -1.215969
    3251, -1.213651
    3261, -1.211391
    3271, -1.209246
    3281, -1.206356
    3291, -1.201622
    3301, -1.194525
    3311, -1.185633
    3321, -1.176470
    3331, -1.168921
    3341, -1.164570
    3351, -1.164283
    3361, -1.168060
    3371, -1.175109
    3381, -1.184106
    3391, -1.193616
    3401, -1.202570
    3411, -1.210596
    3421, -1.217994
    3431, -1.225349
    3441, -1.232943
    3451, -1.240294
    3461, -1.246013
    3471, -1.248177
    3481, -1.245186
    3491, -1.236683
    3501, -1.223905
    3511, -1.209202
    3521, -1.195181
    3531, -1.184055
    3541, -1.177355
    3551, -1.175923
    3561, -1.179997
    3571, -1.189301
    3581, -1.203101
    3591, -1.220252
    3601, -1.239244
    3611, -1.258238
    3621, -1.275126
    3631, -1.287665
    3641, -1.293805
    3651, -1.292245
    3661, -1.283015
    3671, -1.267646
    3681, -1.248735
    3691, -1.229189
    3701, -1.211586
    3711, -1.197881
    3721, -1.189365
    3731, -1.186758
    3741, -1.190308
    3751, -1.199854
    3761, -1.214821
    3771, -1.234138
    3781, -1.256099
    3791, -1.278231
    3801, -1.297366
    3811, -1.310169
    3821, -1.314202
    3831, -1.309002
    3841, -1.296306
    3851, -1.279209
    3861, -1.260997
    3871, -1.244376
    3881, -1.231264
    3891, -1.222873
    3901, -1.219879
    3911, -1.222543
    3921, -1.230748
    3931, -1.243934
    3941, -1.260949
    3951, -1.279861
    3961, -1.297899
    3971, -1.311789
    3981, -1.318699
    3991, -1.317469
    4001, -1.309179
    4011, -1.296577
    4021, -1.282861
    4031, -1.270734
    4041, -1.262069
    4051, -1.257964
    4061, -1.258934
    4071, -1.265077
    4081, -1.276140
    4091, -1.291493
    4101, -1.310006
    4111, -1.329863
    4121, -1.348454
    4131, -1.362588
    4141, -1.369282
    4151, -1.367000
    4161, -1.356498
    4171, -1.340524
    4181, -1.322628
    4191, -1.306058
    4201, -1.293240
    4211, -1.285744
    4221, -1.284445
    4231, -1.289668
    4241, -1.301278
    4251, -1.318656
    4261, -1.340574
    4271, -1.365008
    4281, -1.389012
    4291, -1.408916
    4301, -1.421181
    4311, -1.423766
    4321, -1.417127
    4331, -1.403899
    4341, -1.387584
    4351, -1.371333
    4361, -1.357395
    4371, -1.347121
    4381, -1.341157
    4391, -1.339653
    4401, -1.342414
    4411, -1.348971
    4421, -1.358617
    4431, -1.370426
    4441, -1.383288
    4451, -1.396009
    4461, -1.407461
    4471, -1.416781
    4481, -1.423511
    4491, -1.427623
    4501, -1.429414
    4511, -1.429325
    4521, -1.427823
    4531, -1.425352
    4541, -1.422340
    4551, -1.419213
    4561, -1.416382
    4571, -1.414194
    4581, -1.412872
    4591, -1.412491
    4601, -1.412991
    4611, -1.414227
    4621, -1.416041
    4631, -1.418323
    4641, -1.421042
    4651, -1.424226
    4661, -1.428018
    4671, -1.432543
    4681, -1.437919
    4691, -1.444159
    4701, -1.451121
    4711, -1.458413
    4721, -1.465358
    4731, -1.471005
    4741, -1.474259
    4751, -1.474154
    4761, -1.470213
    4771, -1.462717
    4781, -1.452725
    4791, -1.441826
    4801, -1.431767
    4811, -1.424130
    4821, -1.420139
    4831, -1.420584
    4841, -1.425798
    4851, -1.435631
    4861, -1.449405
    4871, -1.465834
    4881, -1.482925
    4891, -1.498201
    4901, -1.508933
    4911, -1.512895
    4921, -1.509303
    4931, -1.499107
    4941, -1.484587
    4951, -1.468516
    4961, -1.453421
    4971, -1.441214
    4981, -1.433120
    4991, -1.429706
    5001, -1.430945
    5011, -1.436240
    5021, -1.444453
    5031, -1.453983
    5041, -1.462989
    5051, -1.469795
    5061, -1.473379
    5071, -1.473711
    5081, -1.471719
    5091, -1.468893
    5101, -1.466762
    5111, -1.466487
    5121, -1.468614
    5131, -1.472973
    5141, -1.478668
    5151, -1.484181
    5161, -1.487657
    5171, -1.487393
    5181, -1.482431
    5191, -1.472947
    5201, -1.460204
    5211, -1.446106
    5221, -1.432674
    5231, -1.421675
    5241, -1.414471
    5251, -1.412001
    5261, -1.414808
    5271, -1.423044
    5281, -1.436412
    5291, -1.454045
    5301, -1.474310
    5311, -1.494672
    5321, -1.511806
    5331, -1.522304
    5341, -1.523928
    5351, -1.516706
    5361, -1.502888
    5371, -1.485811
    5381, -1.468650
    5391, -1.453752
    5401, -1.442533
    5411, -1.435631
    5421, -1.433102
    5431, -1.434573
    5441, -1.439367
    5451, -1.446593
    5461, -1.455255
    5471, -1.464380
    5481, -1.473158
    5491, -1.481061
    5501, -1.487901
    5511, -1.493794
    5521, -1.499044
    5531, -1.503980
    5541, -1.508805
    5551, -1.513476
    5561, -1.517664
    5571, -1.520793
    5581, -1.522163
    5591, -1.521169
    5601, -1.517525
    5611, -1.511430
    5621, -1.503585
    5631, -1.495062
    5641, -1.487102
    5651, -1.480922
    5661, -1.477580
    5671, -1.477907
    5681, -1.482478
    5691, -1.491585
    5701, -1.505188
    5711, -1.522832
    5721, -1.543492
    5731, -1.565399
    5741, -1.585937
    5751, -1.601859
    5761, -1.610070
    5771, -1.608863
    5781, -1.598806
    5791, -1.582499
    5801, -1.563434
    5811, -1.544877
    5821, -1.529333
    5831, -1.518482
    5841, -1.513330
    5851, -1.514355
    5861, -1.521602
    5871, -1.534672
    5881, -1.552639
    5891, -1.573898
    5901, -1.596043
    5911, -1.615964
    5921, -1.630416
    5931, -1.637091
    5941, -1.635626
    5951, -1.627733
    5961, -1.616309
    5971, -1.604295
    5981, -1.593968
    5991, -1.586751
    6001, -1.583317
    6011, -1.583762
    6021, -1.587783
    6031, -1.594792
    6041, -1.603987
    6051, -1.614412
    6061, -1.624985
    6071, -1.634544
    6081, -1.641928
    6091, -1.646143
    6101, -1.646589
    6111, -1.643280
    6121, -1.636947
    6131, -1.628918
    6141, -1.620866
    6151, -1.614492
    6161, -1.611284
    6171, -1.612376
    6181, -1.618446
    6191, -1.629624
    6201, -1.645352
    6211, -1.664178
    6221, -1.683559
    6231, -1.699920
    6241, -1.709369
    6251, -1.709185
    6261, -1.699242
    6271, -1.682099
    6281, -1.661657
    6291, -1.641651
    6301, -1.624883
    6311, -1.613151
    6321, -1.607458
    6331, -1.608237
    6341, -1.615495
    6351, -1.628841
    6361, -1.647423
    6371, -1.669777
    6381, -1.693652
    6391, -1.715955
    6401, -1.733112
    6411, -1.742027
    6421, -1.741332
    6431, -1.732018
    6441, -1.716836
    6451, -1.699054
    6461, -1.681473
    6471, -1.666070
    6481, -1.654046
    6491, -1.646024
    6501, -1.642222
    6511, -1.642598
    6521, -1.646907
    6531, -1.654739
    6541, -1.665508
    6551, -1.678427
    6561, -1.692472
    6571, -1.706347
    6581, -1.718535
    6591, -1.727445
    6601, -1.731716
    6611, -1.730600
    6621, -1.724257
    6631, -1.713762
    6641, -1.700817
    6651, -1.687335
    6661, -1.675083
    6671, -1.665485
    6681, -1.659551
    6691, -1.657886
    6701, -1.660709
    6711, -1.667858
    6721, -1.678764
    6731, -1.692405
    6741, -1.707261
    6751, -1.721404
    6761, -1.732677
    6771, -1.739156
    6781, -1.739769
    6791, -1.734640
    6801, -1.725014
    6811, -1.712776
    6821, -1.699883
    6831, -1.687982
    6841, -1.678251
    6851, -1.671398
    6861, -1.667719
    6871, -1.667168
    6881, -1.669417
    6891, -1.673910
    6901, -1.679945
    6911, -1.686767
    6921, -1.693674
    6931, -1.700141
    6941, -1.705888
    6951, -1.710893
    6961, -1.715321
    6971, -1.719385
    6981, -1.723201
    6991, -1.726664
    7001, -1.729394
    7011, -1.730769
    7021, -1.730072
    7031, -1.726703
    7041, -1.720424
    7051, -1.711497
    7061, -1.700681
    7071, -1.689078
    7081, -1.677922
    7091, -1.668394
    7101, -1.661509
    7111, -1.658068
    7121, -1.658650
    7131, -1.663621
    7141, -1.673124
    7151, -1.687039
    7161, -1.704900
    7171, -1.725748
    7181, -1.747952
    7191, -1.769071
    7201, -1.785964
    7211, -1.795423
    7221, -1.795310
    7231, -1.785585
    7241, -1.768346
    7251, -1.746854
    7261, -1.724377
    7271, -1.703528
    7281, -1.686124
    7291, -1.673334
    7301, -1.665847
    7311, -1.664033
    7321, -1.668037
    7331, -1.677782
    7341, -1.692934
    7351, -1.712794
    7361, -1.736135
    7371, -1.761005
    7381, -1.784615
    7391, -1.803573
    7401, -1.814690
    7411, -1.816221
    7421, -1.808703
    7431, -1.794645
    7441, -1.777359
    7451, -1.759871
    7461, -1.744414
    7471, -1.732406
    7481, -1.724613
    7491, -1.721334
    7501, -1.722513
    7511, -1.727886
    7521, -1.736967
    7531, -1.749045
    7541, -1.763193
    7551, -1.778282
    7561, -1.793039
    7571, -1.806154
    7581, -1.816485
    7591, -1.823285
    7601, -1.826334
    7611, -1.825979
    7621, -1.822984
    7631, -1.818348
    7641, -1.813057
    7651, -1.807990
    7661, -1.803824
    7671, -1.801037
    7681, -1.799929
    7691, -1.800653
    7701, -1.803234
    7711, -1.807587
    7721, -1.813521
    7731, -1.820736
    7741, -1.828819
    7751, -1.837248
    7761, -1.845416
    7771, -1.852681
    7781, -1.858465
    7791, -1.862360
    7801, -1.864231
    7811, -1.864265
    7821, -1.862949
    7831, -1.861001
    7841, -1.859214
    7851, -1.858328
    7861, -1.858931
    7871, -1.861387
    7881, -1.865804
    7891, -1.872006
    7901, -1.879546
    7911, -1.887735
    7921, -1.895731
    7931, -1.902665
    7941, -1.907826
    7951, -1.910814
    7961, -1.911651
    7971, -1.910732
    7981, -1.908711
    7991, -1.906320
    8001, -1.904201
    8011, -1.902804
    8021, -1.902353
    8031, -1.902855
    8041, -1.904164
    8051, -1.906050
    8061, -1.908294
    8071, -1.910760
    8081, -1.913447
    8091, -1.916495
    8101, -1.920136
    8111, -1.924621
    8121, -1.930118
    8131, -1.936621
    8141, -1.943874
    8151, -1.951337
    8161, -1.958219
    8171, -1.963594
    8181, -1.966611
    8191, -1.966751
    8201, -1.964015
    8211, -1.958972
    8221, -1.952629
    8231, -1.946197
    8241, -1.940860
    8251, -1.937602
    8261, -1.937124
    8271, -1.939804
    8281, -1.945691
    8291, -1.954493
    8301, -1.965568
    8311, -1.977914
    8321, -1.990203
    8331, -2.000903
    8341, -2.008523
    8351, -2.011950
    8361, -2.010760
    8371, -2.005338
    8381, -1.996760
    8391, -1.986484
    8401, -1.976042
    8411, -1.966812
    8421, -1.959915
    8431, -1.956187
    8441, -1.956194
    8451, -1.960225
    8461, -1.968283
    8471, -1.980016
    8481, -1.994641
    8491, -2.010838
    8501, -2.026715
    8511, -2.039949
    8521, -2.048233
    8531, -2.049984
    8541, -2.044978
    8551, -2.034457
    8561, -2.020620
    8571, -2.005886
    8581, -1.992359
    8591, -1.981610
    8601, -1.974641
    8611, -1.971975
    8621, -1.973721
    8631, -1.979610
    8641, -1.988991
    8651, -2.000794
    8661, -2.013536
    8671, -2.025407
    8681, -2.034527
    8691, -2.039389
    8701, -2.039294
    8711, -2.034569
    8721, -2.026416
    8731, -2.016474
    8741, -2.006375
    8751, -1.997446
    8761, -1.990609
    8771, -1.986385
    8781, -1.984959
    8791, -1.986239
    8801, -1.989916
    8811, -1.995498
    8821, -2.002347
    8831, -2.009715
    8841, -2.016763
    8851, -2.022724
    8861, -2.026918
    8871, -2.028856
    8881, -2.028302
    8891, -2.025291
    8901, -2.020103
    8911, -2.013203
    8921, -2.005158
    8931, -1.996578
    8941, -1.988066
    8951, -1.980193
    8961, -1.973488
    8971, -1.968439
    8981, -1.965482
    8991, -1.964973
    9001, -1.967180
    9011, -1.972237
    9021, -1.980098
    9031, -1.990451
    9041, -2.002634
    9051, -2.015551
    9061, -2.027646
    9071, -2.037038
    9081, -2.041880
    9091, -2.040911
    9101, -2.033947
    9111, -2.021993
    9121, -2.006903
    9131, -1.990812
    9141, -1.975678
    9151, -1.963039
    9161, -1.953988
    9171, -1.949223
    9181, -1.949085
    9191, -1.953618
    9201, -1.962564
    9211, -1.975334
    9221, -1.990934
    9231, -2.007919
    9241, -2.024398
    9251, -2.038227
    9261, -2.047434
    9271, -2.050799
    9281, -2.048283
    9291, -2.041009
    9301, -2.030795
    9311, -2.019587
    9321, -2.009036
    9331, -2.000314
    9341, -1.994103
    9351, -1.990656
    9361, -1.989885
    9371, -1.991438
    9381, -1.994783
    9391, -1.999298
    9401, -2.004365
    9411, -2.009487
    9421, -2.014369
    9431, -2.018976
    9441, -2.023522
    9451, -2.028400
    9461, -2.034069
    9471, -2.040918
    9481, -2.049170
    9491, -2.058740
    9501, -2.069159
    9511, -2.079525
    9521, -2.088567
    9531, -2.094826
    9541, -2.097016
    9551, -2.094455
    9561, -2.087338
    9571, -2.076729
    9581, -2.064247
    9591, -2.051666
    9601, -2.040595
    9611, -2.032320
    9621, -2.027770
    9631, -2.027545
    9641, -2.031954
    9651, -2.041030
    9661, -2.054515
    9671, -2.071797
    9681, -2.091810
    9691, -2.112936
    9701, -2.132977
    9711, -2.149360
    9721, -2.159683
    9731, -2.162533
    9741, -2.158064
    9751, -2.147923
    9761, -2.134587
    9771, -2.120589
    9781, -2.108032
    9791, -2.098440
    9801, -2.092803
    9811, -2.091685
    9821, -2.095310
    9831, -2.103605
    9841, -2.116183
    9851, -2.132284
    9861, -2.150686
    9871, -2.169633
    9881, -2.186866
    9891, -2.199929
    9901, -2.206810
    9911, -2.206663
    9921, -2.200177
    9931, -2.189290
    9941, -2.176475
    9951, -2.164069
    9961, -2.153924
    9971, -2.147330
    9981, -2.145085
    9991, -2.147590
   10001, -2.154924
   10011, -2.166863
   10021, -2.182850
   10031, -2.201917
   10041, -2.222595
   10051, -2.242867
   10061, -2.260304
   10071, -2.272484
   10081, -2.277762
   10091, -2.275866
   10101, -2.268008
   10111, -2.256309
   10121, -2.243134
   10131, -2.230495
   10141, -2.219880
   10151, -2.212201
   10161, -2.207948
   10171, -2.207271
   10181, -2.210076
   10191, -2.216086
   10201, -2.224870
   10211, -2.235852
   10221, -2.248325
   10231, -2.261381
   10241, -2.273972
   10251, -2.284909
   10261, -2.292982
   10271, -2.297159
   10281, -2.296833
   10291, -2.292024
   10301, -2.283418
   10311, -2.272238
   10321, -2.259980
   10331, -2.248161
   10341, -2.238139
   10351, -2.231020
   10361, -2.227631
   10371, -2.228514
   10381, -2.233923
   10391, -2.243779
   10401, -2.257531
   10411, -2.274269
   10421, -2.292363
   10431, -2.309437
   10441, -2.322745
   10451, -2.329755
   10461, -2.329075
   10471, -2.321095
   10481, -2.307810
   10491, -2.291999
   10501, -2.276356
   10511, -2.263018
   10521, -2.253478
   10531, -2.248604
   10541, -2.248779
   10551, -2.253967
   10561, -2.263723
   10571, -2.277138
   10581, -2.292800
   10591, -2.308711
   10601, -2.322491
   10611, -2.331809
   10621, -2.335061
   10631, -2.331991
   10641, -2.323819
   10651, -2.312717
   10661, -2.301098
   10671, -2.291069
   10681, -2.284201
   10691, -2.281505
   10701, -2.283483
   10711, -2.290164
   10721, -2.301087
   10731, -2.315224
   10741, -2.330883
   10751, -2.345709
   10761, -2.356939
   10771, -2.362070
   10781, -2.359771
   10791, -2.350482
   10801, -2.336210
   10811, -2.319710
   10821, -2.303648
   10831, -2.290147
   10841, -2.280689
   10851, -2.276204
   10861, -2.277184
   10871, -2.283770
   10881, -2.295763
   10891, -2.312579
   10901, -2.333120
   10911, -2.355618
   10921, -2.377517
   10931, -2.395637
   10941, -2.406827
   10951, -2.409064
   10961, -2.402362
   10971, -2.388725
   10981, -2.371178
   10991, -2.352674
   11001, -2.335499
   11011, -2.321142
   11021, -2.310423
   11031, -2.303665
   11041, -2.300835
   11051, -2.301633
   11061, -2.305518
   11071, -2.311896
   11081, -2.319915
   11091, -2.328715
   11101, -2.337432
   11111, -2.345319
   11121, -2.351849
   11131, -2.356791
   11141, -2.360223
   11151, -2.362468
   11161, -2.363967
   11171, -2.365172
   11181, -2.366417
   11191, -2.367848
   11201, -2.369407
   11211, -2.370846
   11221, -2.371784
   11231, -2.371796
   11241, -2.370510
   11251, -2.367700
   11261, -2.363353
   11271, -2.357681
   11281, -2.351098
   11291, -2.344150
   11301, -2.337452
   11311, -2.331618
   11321, -2.327224
   11331, -2.324776
   11341, -2.324697
   11351, -2.327314
   11361, -2.332852
   11371, -2.341412
   11381, -2.352931
   11391, -2.367121
   11401, -2.383363
   11411, -2.400586
   11421, -2.417154
   11431, -2.430872
   11441, -2.439268
   11451, -2.440246
   11461, -2.432906
   11471, -2.418010
   11481, -2.397707
   11491, -2.374771
   11501, -2.351851
   11511, -2.331089
   11521, -2.314051
   11531, -2.301821
   11541, -2.295132
   11551, -2.294478
   11561, -2.300189
   11571, -2.312447
   11581, -2.331261
   11591, -2.356351
   11601, -2.386908
   11611, -2.421186
   11621, -2.455928
   11631, -2.485950
   11641, -2.504810
   11651, -2.507436
   11661, -2.493372
   11671, -2.467057
   11681, -2.434814
   11691, -2.401952
   11701, -2.371866
   11711, -2.346366
   11721, -2.326263
   11731, -2.311814
   11741, -2.302999
   11751, -2.299663
   11761, -2.301587
   11771, -2.308507
   11781, -2.320100
   11791, -2.335931
   11801, -2.355362
   11811, -2.377427
   11821, -2.400637
   11831, -2.422848
   11841, -2.441332
   11851, -2.453213
   11861, -2.456355
   11871, -2.450291
   11881, -2.436491
   11891, -2.417721
   11901, -2.397040
   11911, -2.377081
   11921, -2.359786
   11931, -2.346444
   11941, -2.337828
   11951, -2.334318
   11961, -2.335980
   11971, -2.342593
   11981, -2.353602
   11991, -2.368043
   12001, -2.384466
   12011, -2.400908
   12021, -2.415059
   12031, -2.424687
   12041, -2.428315
   12051, -2.425774
   12061, -2.418261
   12071, -2.407850
   12081, -2.396814
   12091, -2.387116
   12101, -2.380201
   12111, -2.376973
   12121, -2.377856
   12131, -2.382858
   12141, -2.391594
   12151, -2.403276
   12161, -2.416690
   12171, -2.430211
   12181, -2.441942
   12191, -2.450033
   12201, -2.453158
   12211, -2.450939
   12221, -2.444078
   12231, -2.434082
   12241, -2.422789
   12251, -2.411943
   12261, -2.402954
   12271, -2.396832
   12281, -2.394217
   12291, -2.395436
   12301, -2.400555
   12311, -2.409402
   12321, -2.421563
   12331, -2.436353
   12341, -2.452782
   12351, -2.469535
   12361, -2.485027
   12371, -2.497579
   12381, -2.505732
   12391, -2.508626
   12401, -2.506251
   12411, -2.499437
   12421, -2.489573
   12431, -2.478241
   12441, -2.466920
   12451, -2.456831
   12461, -2.448902
   12471, -2.443796
   12481, -2.441963
   12491, -2.443682
   12501, -2.449077
   12511, -2.458126
   12521, -2.470626
   12531, -2.486161
   12541, -2.504019
   12551, -2.523136
   12561, -2.542056
   12571, -2.558998
   12581, -2.572099
   12591, -2.579829
   12601, -2.581451
   12611, -2.577272
   12621, -2.568510
   12631, -2.556885
   12641, -2.544166
   12651, -2.531867
   12661, -2.521131
   12671, -2.512736
   12681, -2.507158
   12691, -2.504633
   12701, -2.505218
   12711, -2.508823
   12721, -2.515235
   12731, -2.524123
   12741, -2.535044
   12751, -2.547451
   12761, -2.560693
   12771, -2.574033
   12781, -2.586702
   12791, -2.598005
   12801, -2.607292
   12811, -2.614132
   12821, -2.618310
   12831, -2.619850
   12841, -2.618976
   12851, -2.616066
   12861, -2.611590
   12871, -2.606060
   12881, -2.599993
   12891, -2.593888
   12901, -2.588206
   12911, -2.583360
   12921, -2.579700
   12931, -2.577502
   12941, -2.576957
   12951, -2.578161
   12961, -2.581105
   12971, -2.585668
   12981, -2.591620
   12991, -2.598621
   13001, -2.606240
   13011, -2.613978
   13021, -2.621312
   13031, -2.627744
   13041, -2.632856
   13051, -2.636357
   13061, -2.638109
   13071, -2.638124
   13081, -2.636533
   13091, -2.633554
   13101, -2.629443
   13111, -2.624473
   13121, -2.618918
   13131, -2.613057
   13141, -2.607180
   13151, -2.601601
   13161, -2.596655
   13171, -2.592699
   13181, -2.590094
   13191, -2.589185
   13201, -2.590276
   13211, -2.593595
   13221, -2.599259
   13231, -2.607218
   13241, -2.617200
   13251, -2.628643
   13261, -2.640622
   13271, -2.651822
   13281, -2.660605
   13291, -2.665250
   13301, -2.664370
   13311, -2.657368
   13321, -2.644677
   13331, -2.627641
   13341, -2.608100
   13351, -2.587949
   13361, -2.568838
   13371, -2.552058
   13381, -2.538556
   13391, -2.528989
   13401, -2.523797
   13411, -2.523260
   13421, -2.527521
   13431, -2.536597
   13441, -2.550349
   13451, -2.568408
   13461, -2.590064
   13471, -2.614080
   13481, -2.638500
   13491, -2.660529
   13501, -2.676770
   13511, -2.684042
   13521, -2.680627
   13531, -2.667111
   13541, -2.646069
   13551, -2.620877
   13561, -2.594632
   13571, -2.569652
   13581, -2.547469
   13591, -2.529011
   13601, -2.514802
   13611, -2.505119
   13621, -2.500088
   13631, -2.499742
   13641, -2.504034
   13651, -2.512836
   13661, -2.525892
   13671, -2.542742
   13681, -2.562614
   13691, -2.584268
   13701, -2.605854
   13711, -2.624892
   13721, -2.638551
   13731, -2.644368
   13741, -2.641190
   13751, -2.629722
   13761, -2.612216
   13771, -2.591578
   13781, -2.570532
   13791, -2.551210
   13801, -2.535102
   13811, -2.523171
   13821, -2.515998
   13831, -2.513900
   13841, -2.516991
   13851, -2.525196
   13861, -2.538217
   13871, -2.555437
   13881, -2.575771
   13891, -2.597482
   13901, -2.618049
   13911, -2.634315
   13921, -2.643137
   13931, -2.642527
   13941, -2.632604
   13951, -2.615550
   13961, -2.594612
   13971, -2.572995
   13981, -2.553238
   13991, -2.537107
   14001, -2.525736
   14011, -2.519808
   14021, -2.519705
   14031, -2.525594
   14041, -2.537444
   14051, -2.554986
   14061, -2.577572
   14071, -2.603951
   14081, -2.631944
   14091, -2.658169
   14101, -2.678192
   14111, -2.687643
   14121, -2.684188
   14131, -2.668905
   14141, -2.645617
   14151, -2.618922
   14161, -2.592667
   14171, -2.569481
   14181, -2.550954
   14191, -2.537973
   14201, -2.531001
   14211, -2.530257
   14221, -2.535807
   14231, -2.547595
   14241, -2.565402
   14251, -2.588740
   14261, -2.616647
   14271, -2.647368
   14281, -2.677977
   14291, -2.704207
   14301, -2.721083
   14311, -2.724762
   14321, -2.714678
   14331, -2.693892
   14341, -2.667268
   14351, -2.639364
   14361, -2.613464
   14371, -2.591594
   14381, -2.574879
   14391, -2.563893
   14401, -2.558888
   14411, -2.559940
   14421, -2.566999
   14431, -2.579896
   14441, -2.598287
   14451, -2.621539
   14461, -2.648540
   14471, -2.677438
   14481, -2.705404
   14491, -2.728688
   14501, -2.743346
   14511, -2.746736
   14521, -2.738879
   14531, -2.722440
   14541, -2.701334
   14551, -2.679244
   14561, -2.658899
   14571, -2.642035
   14581, -2.629621
   14591, -2.622112
   14601, -2.619624
   14611, -2.622045
   14621, -2.629078
   14631, -2.640249
   14641, -2.654884
   14651, -2.672068
   14661, -2.690618
   14671, -2.709099
   14681, -2.725923
   14691, -2.739568
   14701, -2.748895
   14711, -2.753423
   14721, -2.753437
   14731, -2.749845
   14741, -2.743881
   14751, -2.736787
   14761, -2.729610
   14771, -2.723104
   14781, -2.717735
   14791, -2.713725
   14801, -2.711115
   14811, -2.709829
   14821, -2.709736
   14831, -2.710694
   14841, -2.712587
   14851, -2.715348
   14861, -2.718964
   14871, -2.723468
   14881, -2.728914
   14891, -2.735350
   14901, -2.742781
   14911, -2.751130
   14921, -2.760205
   14931, -2.769676
   14941, -2.779071
   14951, -2.787800
   14961, -2.795214