 variables=iter,cl,cd,cm,clim,cdim,cmim,clip,cdip,cmip,cljm,cdjm,cmjm,cljp,cdjp,cmjp
 zone t ="coefhist", f=point
       1  1.486342E-01  3.436622E-02 -7.522077E-02  0.000000E+00  0.000000E+00  0.000000E+00  0.000000E+00  0.000000E+00  0.000000E+00  1.486342E-01  3.436622E-02 -7.522077E-02  0.000000E+00  0.000000E+00  0.000000E+00
      11  1.320710E+00  3.142294E-01 -6.731228E-01  0.000000E+00  0.000000E+00  0.000000E+00  0.000000E+00  0.000000E+00  0.000000E+00  1.320710E+00  3.142294E-01 -6.731228E-01  0.000000E+00  0.000000E+00  0.000000E+00
      21  1.738781E+00  4.391820E-01 -8.870208E-01  0.000000E+00  0.000000E+00  0.000000E+00  0.000000E+00  0.000000E+00  0.000000E+00  1.738781E+00  4.391820E-01 -8.870208E-01  0.000000E+00  0.000000E+00  0.000000E+00
      31  1.636782E+00  4.478601E-01 -8.282498E-01  0.000000E+00  0.000000E+00  0.000000E+00  0.000000E+00  0.000000E+00  0.000000E+00  1.636782E+00  4.478601E-01 -8.282498E-01  0.000000E+00  0.000000E+00  0.000000E+00
      41  1.405994E+00  4.137351E-01 -7.007706E-01  0.000000E+00  0.000000E+00  0.000000E+00  0.000000E+00  0.000000E+00  0.000000E+00  1.405994E+00  4.137351E-01 -7.007706E-01  0.000000E+00  0.000000E+00  0.000000E+00
      51  1.236521E+00  3.767117E-01 -6.053117E-01  0.000000E+00  0.000000E+00  0.000000E+00  0.000000E+00  0.000000E+00  0.000000E+00  1.236521E+00  3.767117E-01 -6.053117E-01  0.000000E+00  0.000000E+00  0.000000E+00
      61  1.134014E+00  3.442422E-01 -5.435717E-01  0.000000E+00  0.000000E+00  0.000000E+00  0.000000E+00  0.000000E+00  0.000000E+00  1.134014E+00  3.442422E-01 -5.435717E-01  0.000000E+00  0.000000E+00  0.000000E+00
      71  1.051905E+00  3.132072E-01 -4.894949E-01  0.000000E+00  0.000000E+00  0.000000E+00  0.000000E+00  0.000000E+00  0.000000E+00  1.051905E+00  3.132072E-01 -4.894949E-01  0.000000E+00  0.000000E+00  0.000000E+00
      81  9.658535E-01  2.820070E-01 -4.305473E-01  0.000000E+00  0.000000E+00  0.000000E+00  0.000000E+00  0.000000E+00  0.000000E+00  9.658535E-01  2.820070E-01 -4.305473E-01  0.000000E+00  0.000000E+00  0.000000E+00
      91  8.770861E-01  2.511897E-01 -3.689895E-01  0.000000E+00  0.000000E+00  0.000000E+00  0.000000E+00  0.000000E+00  0.000000E+00  8.770861E-01  2.511897E-01 -3.689895E-01  0.000000E+00  0.000000E+00  0.000000E+00
     101  7.938788E-01  2.210467E-01 -3.104515E-01  0.000000E+00  0.000000E+00  0.000000E+00  0.000000E+00  0.000000E+00  0.000000E+00  7.938788E-01  2.210467E-01 -3.104515E-01  0.000000E+00  0.000000E+00  0.000000E+00
     111  7.208285E-01  1.908630E-01 -2.576057E-01  0.000000E+00  0.000000E+00  0.000000E+00  0.000000E+00  0.000000E+00  0.000000E+00  7.208285E-01  1.908630E-01 -2.576057E-01  0.000000E+00  0.000000E+00  0.000000E+00
     121  6.582901E-01  1.596874E-01 -2.102490E-01  0.000000E+00  0.000000E+00  0.000000E+00  0.000000E+00  0.000000E+00  0.000000E+00  6.582901E-01  1.596874E-01 -2.102490E-01  0.000000E+00  0.000000E+00  0.000000E+00
     131  6.050920E-01  1.271825E-01 -1.673624E-01  0.000000E+00  0.000000E+00  0.000000E+00  0.000000E+00  0.000000E+00  0.000000E+00  6.050920E-01  1.271825E-01 -1.673624E-01  0.000000E+00  0.000000E+00  0.000000E+00
     141  5.600753E-01  9.386409E-02 -1.283515E-01  0.000000E+00  0.000000E+00  0.000000E+00  0.000000E+00  0.000000E+00  0.000000E+00  5.600753E-01  9.386409E-02 -1.283515E-01  0.000000E+00  0.000000E+00  0.000000E+00
     151  5.220318E-01  6.083559E-02 -9.315726E-02  0.000000E+00  0.000000E+00  0.000000E+00  0.000000E+00  0.000000E+00  0.000000E+00  5.220318E-01  6.083559E-02 -9.315726E-02  0.000000E+00  0.000000E+00  0.000000E+00
     161  4.892572E-01  2.936994E-02 -6.192414E-02  0.000000E+00  0.000000E+00  0.000000E+00  0.000000E+00  0.000000E+00  0.000000E+00  4.892572E-01  2.936994E-02 -6.192414E-02  0.000000E+00  0.000000E+00  0.000000E+00
     171  4.595670E-01  5.779966E-04 -3.474028E-02  0.000000E+00  0.000000E+00  0.000000E+00  0.000000E+00  0.000000E+00  0.000000E+00  4.595670E-01  5.779966E-04 -3.474028E-02  0.000000E+00  0.000000E+00  0.000000E+00
     181  4.307851E-01 -2.475258E-02 -1.154126E-02  0.000000E+00  0.000000E+00  0.000000E+00  0.000000E+00  0.000000E+00  0.000000E+00  4.307851E-01 -2.475258E-02 -1.154126E-02  0.000000E+00  0.000000E+00  0.000000E+00
     191  4.013057E-01 -4.616527E-02  7.897626E-03  0.000000E+00  0.000000E+00  0.000000E+00  0.000000E+00  0.000000E+00  0.000000E+00  4.013057E-01 -4.616527E-02  7.897626E-03  0.000000E+00  0.000000E+00  0.000000E+00
     201  3.703676E-01 -6.345787E-02  2.394225E-02  0.000000E+00  0.000000E+00  0.000000E+00  0.000000E+00  0.000000E+00  0.000000E+00  3.703676E-01 -6.345787E-02  2.394225E-02  0.000000E+00  0.000000E+00  0.000000E+00
     211  3.379487E-01 -7.659947E-02  3.707286E-02  0.000000E+00  0.000000E+00  0.000000E+00  0.000000E+00  0.000000E+00  0.000000E+00  3.379487E-01 -7.659947E-02  3.707286E-02  0.000000E+00  0.000000E+00  0.000000E+00
     221  3.044499E-01 -8.567493E-02  4.783106E-02  0.000000E+00  0.000000E+00  0.000000E+00  0.000000E+00  0.000000E+00  0.000000E+00  3.044499E-01 -8.567493E-02  4.783106E-02  0.000000E+00  0.000000E+00  0.000000E+00
     231  2.701106E-01 -9.093064E-02  5.683365E-02  0.000000E+00  0.000000E+00  0.000000E+00  0.000000E+00  0.000000E+00  0.000000E+00  2.701106E-01 -9.093064E-02  5.683365E-02  0.000000E+00  0.000000E+00  0.000000E+00
     241  2.348283E-01 -9.285116E-02  6.480421E-02  0.000000E+00  0.000000E+00  0.000000E+00  0.000000E+00  0.000000E+00  0.000000E+00  2.348283E-01 -9.285116E-02  6.480421E-02  0.000000E+00  0.000000E+00  0.000000E+00
     251  1.986602E-01 -9.208292E-02  7.239384E-02  0.000000E+00  0.000000E+00  0.000000E+00  0.000000E+00  0.000000E+00  0.000000E+00  1.986602E-01 -9.208292E-02  7.239384E-02  0.000000E+00  0.000000E+00  0.000000E+00
     261  1.623128E-01 -8.928054E-02  7.990034E-02  0.000000E+00  0.000000E+00  0.000000E+00  0.000000E+00  0.000000E+00  0.000000E+00  1.623128E-01 -8.928054E-02  7.990034E-02  0.000000E+00  0.000000E+00  0.000000E+00
     271  1.271477E-01 -8.500272E-02  8.712164E-02  0.000000E+00  0.000000E+00  0.000000E+00  0.000000E+00  0.000000E+00  0.000000E+00  1.271477E-01 -8.500272E-02  8.712164E-02  0.000000E+00  0.000000E+00  0.000000E+00
     281  9.485754E-02 -7.968476E-02  9.342575E-02  0.000000E+00  0.000000E+00  0.000000E+00  0.000000E+00  0.000000E+00  0.000000E+00  9.485754E-02 -7.968476E-02  9.342575E-02  0.000000E+00  0.000000E+00  0.000000E+00
     291  6.718520E-02 -7.363444E-02  9.792186E-02  0.000000E+00  0.000000E+00  0.000000E+00  0.000000E+00  0.000000E+00  0.000000E+00  6.718520E-02 -7.363444E-02  9.792186E-02  0.000000E+00  0.000000E+00  0.000000E+00
     301  4.579547E-02 -6.702841E-02  9.963143E-02  0.000000E+00  0.000000E+00  0.000000E+00  0.000000E+00  0.000000E+00  0.000000E+00  4.579547E-02 -6.702841E-02  9.963143E-02  0.000000E+00  0.000000E+00  0.000000E+00
     311  3.220799E-02 -5.992672E-02  9.765101E-02  0.000000E+00  0.000000E+00  0.000000E+00  0.000000E+00  0.000000E+00  0.000000E+00  3.220799E-02 -5.992672E-02  9.765101E-02  0.000000E+00  0.000000E+00  0.000000E+00
     321  2.772765E-02 -5.231215E-02  9.131198E-02  0.000000E+00  0.000000E+00  0.000000E+00  0.000000E+00  0.000000E+00  0.000000E+00  2.772765E-02 -5.231215E-02  9.131198E-02  0.000000E+00  0.000000E+00  0.000000E+00
     331  3.334114E-02 -4.414075E-02  8.032770E-02  0.000000E+00  0.000000E+00  0.000000E+00  0.000000E+00  0.000000E+00  0.000000E+00  3.334114E-02 -4.414075E-02  8.032770E-02  0.000000E+00  0.000000E+00  0.000000E+00
     341  4.954047E-02 -3.538920E-02  6.492116E-02  0.000000E+00  0.000000E+00  0.000000E+00  0.000000E+00  0.000000E+00  0.000000E+00  4.954047E-02 -3.538920E-02  6.492116E-02  0.000000E+00  0.000000E+00  0.000000E+00
     351  7.609849E-02 -2.608711E-02  4.589547E-02  0.000000E+00  0.000000E+00  0.000000E+00  0.000000E+00  0.000000E+00  0.000000E+00  7.609849E-02 -2.608711E-02  4.589547E-02  0.000000E+00  0.000000E+00  0.000000E+00
     361  1.118232E-01 -1.635022E-02  2.460091E-02  0.000000E+00  0.000000E+00  0.000000E+00  0.000000E+00  0.000000E+00  0.000000E+00  1.118232E-01 -1.635022E-02  2.460091E-02  0.000000E+00  0.000000E+00  0.000000E+00
     371  1.545511E-01 -6.406675E-03  2.708628E-03  0.000000E+00  0.000000E+00  0.000000E+00  0.000000E+00  0.000000E+00  0.000000E+00  1.545511E-01 -6.406675E-03  2.708628E-03  0.000000E+00  0.000000E+00  0.000000E+00
     381  2.015335E-01  3.405203E-03 -1.819125E-02  0.000000E+00  0.000000E+00  0.000000E+00  0.000000E+00  0.000000E+00  0.000000E+00  2.015335E-01  3.405203E-03 -1.819125E-02  0.000000E+00  0.000000E+00  0.000000E+00
     391  2.501527E-01  1.269897E-02 -3.704925E-02  0.000000E+00  0.000000E+00  0.000000E+00  0.000000E+00  0.000000E+00  0.000000E+00  2.501527E-01  1.269897E-02 -3.704925E-02  0.000000E+00  0.000000E+00  0.000000E+00
     401  2.984550E-01  2.113085E-02 -5.362263E-02  0.000000E+00  0.000000E+00  0.000000E+00  0.000000E+00  0.000000E+00  0.000000E+00  2.984550E-01  2.113085E-02 -5.362263E-02  0.000000E+00  0.000000E+00  0.000000E+00
     411  3.452039E-01  2.846108E-02 -6.830258E-02  0.000000E+00  0.000000E+00  0.000000E+00  0.000000E+00  0.000000E+00  0.000000E+00  3.452039E-01  2.846108E-02 -6.830258E-02  0.000000E+00  0.000000E+00  0.000000E+00
     421  3.896251E-01  3.458508E-02 -8.167489E-02  0.000000E+00  0.000000E+00  0.000000E+00  0.000000E+00  0.000000E+00  0.000000E+00  3.896251E-01  3.458508E-02 -8.167489E-02  0.000000E+00  0.000000E+00  0.000000E+00
     431  4.311272E-01  3.953300E-02 -9.414914E-02  0.000000E+00  0.000000E+00  0.000000E+00  0.000000E+00  0.000000E+00  0.000000E+00  4.311272E-01  3.953300E-02 -9.414914E-02  0.000000E+00  0.000000E+00  0.000000E+00
     441  4.691954E-01  4.343375E-02 -1.058470E-01  0.000000E+00  0.000000E+00  0.000000E+00  0.000000E+00  0.000000E+00  0.000000E+00  4.691954E-01  4.343375E-02 -1.058470E-01  0.000000E+00  0.000000E+00  0.000000E+00
     451  5.034542E-01  4.645660E-02 -1.167045E-01  0.000000E+00  0.000000E+00  0.000000E+00  0.000000E+00  0.000000E+00  0.000000E+00  5.034542E-01  4.645660E-02 -1.167045E-01  0.000000E+00  0.000000E+00  0.000000E+00
     461  5.337651E-01  4.875655E-02 -1.266246E-01  0.000000E+00  0.000000E+00  0.000000E+00  0.000000E+00  0.000000E+00  0.000000E+00  5.337651E-01  4.875655E-02 -1.266246E-01  0.000000E+00  0.000000E+00  0.000000E+00
     471  5.602479E-01  5.044973E-02 -1.355686E-01  0.000000E+00  0.000000E+00  0.000000E+00  0.000000E+00  0.000000E+00  0.000000E+00  5.602479E-01  5.044973E-02 -1.355686E-01  0.000000E+00  0.000000E+00  0.000000E+00
     481  5.832159E-01  5.163362E-02 -1.435753E-01  0.000000E+00  0.000000E+00  0.000000E+00  0.000000E+00  0.000000E+00  0.000000E+00  5.832159E-01  5.163362E-02 -1.435753E-01  0.000000E+00  0.000000E+00  0.000000E+00
     491  6.030699E-01  5.243984E-02 -1.507483E-01  0.000000E+00  0.000000E+00  0.000000E+00  0.000000E+00  0.000000E+00  0.000000E+00  6.030699E-01  5.243984E-02 -1.507483E-01  0.000000E+00  0.000000E+00  0.000000E+00
     501  6.201831E-01  5.307185E-02 -1.572357E-01  0.000000E+00  0.000000E+00  0.000000E+00  0.000000E+00  0.000000E+00  0.000000E+00  6.201831E-01  5.307185E-02 -1.572357E-01  0.000000E+00  0.000000E+00  0.000000E+00
     511  6.348040E-01  5.378033E-02 -1.632028E-01  0.000000E+00  0.000000E+00  0.000000E+00  0.000000E+00  0.000000E+00  0.000000E+00  6.348040E-01  5.378033E-02 -1.632028E-01  0.000000E+00  0.000000E+00  0.000000E+00
     521  6.470224E-01  5.478360E-02 -1.687964E-01  0.000000E+00  0.000000E+00  0.000000E+00  0.000000E+00  0.000000E+00  0.000000E+00  6.470224E-01  5.478360E-02 -1.687964E-01  0.000000E+00  0.000000E+00  0.000000E+00
     531  6.568280E-01  5.618110E-02 -1.741099E-01  0.000000E+00  0.000000E+00  0.000000E+00  0.000000E+00  0.000000E+00  0.000000E+00  6.568280E-01  5.618110E-02 -1.741099E-01  0.000000E+00  0.000000E+00  0.000000E+00
     541  6.642548E-01  5.790559E-02 -1.791594E-01  0.000000E+00  0.000000E+00  0.000000E+00  0.000000E+00  0.000000E+00  0.000000E+00  6.642548E-01  5.790559E-02 -1.791594E-01  0.000000E+00  0.000000E+00  0.000000E+00
     551  6.695540E-01  5.973367E-02 -1.838812E-01  0.000000E+00  0.000000E+00  0.000000E+00  0.000000E+00  0.000000E+00  0.000000E+00  6.695540E-01  5.973367E-02 -1.838812E-01  0.000000E+00  0.000000E+00  0.000000E+00
     561  6.733020E-01  6.134742E-02 -1.881499E-01  0.000000E+00  0.000000E+00  0.000000E+00  0.000000E+00  0.000000E+00  0.000000E+00  6.733020E-01  6.134742E-02 -1.881499E-01  0.000000E+00  0.000000E+00  0.000000E+00
     571  6.763543E-01  6.242140E-02 -1.918120E-01  0.000000E+00  0.000000E+00  0.000000E+00  0.000000E+00  0.000000E+00  0.000000E+00  6.763543E-01  6.242140E-02 -1.918120E-01  0.000000E+00  0.000000E+00  0.000000E+00
     581  6.796084E-01  6.270077E-02 -1.947215E-01  0.000000E+00  0.000000E+00  0.000000E+00  0.000000E+00  0.000000E+00  0.000000E+00  6.796084E-01  6.270077E-02 -1.947215E-01  0.000000E+00  0.000000E+00  0.000000E+00
     591  6.836526E-01  6.204167E-02 -1.967638E-01  0.000000E+00  0.000000E+00  0.000000E+00  0.000000E+00  0.000000E+00  0.000000E+00  6.836526E-01  6.204167E-02 -1.967638E-01  0.000000E+00  0.000000E+00  0.000000E+00
     601  6.884913E-01  6.040677E-02 -1.978633E-01  0.000000E+00  0.000000E+00  0.000000E+00  0.000000E+00  0.000000E+00  0.000000E+00  6.884913E-01  6.040677E-02 -1.978633E-01  0.000000E+00  0.000000E+00  0.000000E+00
     611  6.935379E-01  5.783788E-02 -1.979883E-01  0.000000E+00  0.000000E+00  0.000000E+00  0.000000E+00  0.000000E+00  0.000000E+00  6.935379E-01  5.783788E-02 -1.979883E-01  0.000000E+00  0.000000E+00  0.000000E+00
     621  6.978981E-01  5.443519E-02 -1.971609E-01  0.000000E+00  0.000000E+00  0.000000E+00  0.000000E+00  0.000000E+00  0.000000E+00  6.978981E-01  5.443519E-02 -1.971609E-01  0.000000E+00  0.000000E+00  0.000000E+00
     631  7.007664E-01  5.035253E-02 -1.954666E-01  0.000000E+00  0.000000E+00  0.000000E+00  0.000000E+00  0.000000E+00  0.000000E+00  7.007664E-01  5.035253E-02 -1.954666E-01  0.000000E+00  0.000000E+00  0.000000E+00
     641  7.017003E-01  4.579395E-02 -1.930391E-01  0.000000E+00  0.000000E+00  0.000000E+00  0.000000E+00  0.000000E+00  0.000000E+00  7.017003E-01  4.579395E-02 -1.930391E-01  0.000000E+00  0.000000E+00  0.000000E+00
     651  7.006716E-01  4.099591E-02 -1.900168E-01  0.000000E+00  0.000000E+00  0.000000E+00  0.000000E+00  0.000000E+00  0.000000E+00  7.006716E-01  4.099591E-02 -1.900168E-01  0.000000E+00  0.000000E+00  0.000000E+00
     661  6.979687E-01  3.619868E-02 -1.865005E-01  0.000000E+00  0.000000E+00  0.000000E+00  0.000000E+00  0.000000E+00  0.000000E+00  6.979687E-01  3.619868E-02 -1.865005E-01  0.000000E+00  0.000000E+00  0.000000E+00
     671  6.940673E-01  3.162179E-02 -1.825470E-01  0.000000E+00  0.000000E+00  0.000000E+00  0.000000E+00  0.000000E+00  0.000000E+00  6.940673E-01  3.162179E-02 -1.825470E-01  0.000000E+00  0.000000E+00  0.000000E+00
     681  6.895227E-01  2.744958E-02 -1.782010E-01  0.000000E+00  0.000000E+00  0.000000E+00  0.000000E+00  0.000000E+00  0.000000E+00  6.895227E-01  2.744958E-02 -1.782010E-01  0.000000E+00  0.000000E+00  0.000000E+00
     691  6.848748E-01  2.382194E-02 -1.735402E-01  0.000000E+00  0.000000E+00  0.000000E+00  0.000000E+00  0.000000E+00  0.000000E+00  6.848748E-01  2.382194E-02 -1.735402E-01  0.000000E+00  0.000000E+00  0.000000E+00
     701  6.805596E-01  2.082340E-02 -1.687021E-01  0.000000E+00  0.000000E+00  0.000000E+00  0.000000E+00  0.000000E+00  0.000000E+00  6.805596E-01  2.082340E-02 -1.687021E-01  0.000000E+00  0.000000E+00  0.000000E+00
     711  6.768515E-01  1.847293E-02 -1.638832E-01  0.000000E+00  0.000000E+00  0.000000E+00  0.000000E+00  0.000000E+00  0.000000E+00  6.768515E-01  1.847293E-02 -1.638832E-01  0.000000E+00  0.000000E+00  0.000000E+00
     721  6.738534E-01  1.672190E-02 -1.593176E-01  0.000000E+00  0.000000E+00  0.000000E+00  0.000000E+00  0.000000E+00  0.000000E+00  6.738534E-01  1.672190E-02 -1.593176E-01  0.000000E+00  0.000000E+00  0.000000E+00
     731  6.715263E-01  1.546535E-02 -1.552434E-01  0.000000E+00  0.000000E+00  0.000000E+00  0.000000E+00  0.000000E+00  0.000000E+00  6.715263E-01  1.546535E-02 -1.552434E-01  0.000000E+00  0.000000E+00  0.000000E+00
     741  6.697331E-01  1.456455E-02 -1.518644E-01  0.000000E+00  0.000000E+00  0.000000E+00  0.000000E+00  0.000000E+00  0.000000E+00  6.697331E-01  1.456455E-02 -1.518644E-01  0.000000E+00  0.000000E+00  0.000000E+00
     751  6.682781E-01  1.387550E-02 -1.493137E-01  0.000000E+00  0.000000E+00  0.000000E+00  0.000000E+00  0.000000E+00  0.000000E+00  6.682781E-01  1.387550E-02 -1.493137E-01  0.000000E+00  0.000000E+00  0.000000E+00
     761  6.669440E-01  1.327673E-02 -1.476289E-01  0.000000E+00  0.000000E+00  0.000000E+00  0.000000E+00  0.000000E+00  0.000000E+00  6.669440E-01  1.327673E-02 -1.476289E-01  0.000000E+00  0.000000E+00  0.000000E+00
     771  6.655312E-01  1.269011E-02 -1.467483E-01  0.000000E+00  0.000000E+00  0.000000E+00  0.000000E+00  0.000000E+00  0.000000E+00  6.655312E-01  1.269011E-02 -1.467483E-01  0.000000E+00  0.000000E+00  0.000000E+00
     781  6.638982E-01  1.209032E-02 -1.465292E-01  0.000000E+00  0.000000E+00  0.000000E+00  0.000000E+00  0.000000E+00  0.000000E+00  6.638982E-01  1.209032E-02 -1.465292E-01  0.000000E+00  0.000000E+00  0.000000E+00
     791  6.619965E-01  1.150101E-02 -1.467839E-01  0.000000E+00  0.000000E+00  0.000000E+00  0.000000E+00  0.000000E+00  0.000000E+00  6.619965E-01  1.150101E-02 -1.467839E-01  0.000000E+00  0.000000E+00  0.000000E+00
     801  6.598867E-01  1.097977E-02 -1.473229E-01  0.000000E+00  0.000000E+00  0.000000E+00  0.000000E+00  0.000000E+00  0.000000E+00  6.598867E-01  1.097977E-02 -1.473229E-01  0.000000E+00  0.000000E+00  0.000000E+00
     811  6.577316E-01  1.059691E-02 -1.479928E-01  0.000000E+00  0.000000E+00  0.000000E+00  0.000000E+00  0.000000E+00  0.000000E+00  6.577316E-01  1.059691E-02 -1.479928E-01  0.000000E+00  0.000000E+00  0.000000E+00
     821  6.557674E-01  1.041468E-02 -1.487014E-01  0.000000E+00  0.000000E+00  0.000000E+00  0.000000E+00  0.000000E+00  0.000000E+00  6.557674E-01  1.041468E-02 -1.487014E-01  0.000000E+00  0.000000E+00  0.000000E+00
     831  6.542598E-01  1.047220E-02 -1.494251E-01  0.000000E+00  0.000000E+00  0.000000E+00  0.000000E+00  0.000000E+00  0.000000E+00  6.542598E-01  1.047220E-02 -1.494251E-01  0.000000E+00  0.000000E+00  0.000000E+00
     841  6.534578E-01  1.077885E-02 -1.501989E-01  0.000000E+00  0.000000E+00  0.000000E+00  0.000000E+00  0.000000E+00  0.000000E+00  6.534578E-01  1.077885E-02 -1.501989E-01  0.000000E+00  0.000000E+00  0.000000E+00
     851  6.535546E-01  1.131610E-02 -1.510936E-01  0.000000E+00  0.000000E+00  0.000000E+00  0.000000E+00  0.000000E+00  0.000000E+00  6.535546E-01  1.131610E-02 -1.510936E-01  0.000000E+00  0.000000E+00  0.000000E+00
     861  6.546633E-01  1.204566E-02 -1.521880E-01  0.000000E+00  0.000000E+00  0.000000E+00  0.000000E+00  0.000000E+00  0.000000E+00  6.546633E-01  1.204566E-02 -1.521880E-01  0.000000E+00  0.000000E+00  0.000000E+00
     871  6.568114E-01  1.292073E-02 -1.535431E-01  0.000000E+00  0.000000E+00  0.000000E+00  0.000000E+00  0.000000E+00  0.000000E+00  6.568114E-01  1.292073E-02 -1.535431E-01  0.000000E+00  0.000000E+00  0.000000E+00
     881  6.599527E-01  1.389720E-02 -1.551850E-01  0.000000E+00  0.000000E+00  0.000000E+00  0.000000E+00  0.000000E+00  0.000000E+00  6.599527E-01  1.389720E-02 -1.551850E-01  0.000000E+00  0.000000E+00  0.000000E+00
     891  6.639925E-01  1.494237E-02 -1.571014E-01  0.000000E+00  0.000000E+00  0.000000E+00  0.000000E+00  0.000000E+00  0.000000E+00  6.639925E-01  1.494237E-02 -1.571014E-01  0.000000E+00  0.000000E+00  0.000000E+00
     901  6.688185E-01  1.603973E-02 -1.592507E-01  0.000000E+00  0.000000E+00  0.000000E+00  0.000000E+00  0.000000E+00  0.000000E+00  6.688185E-01  1.603973E-02 -1.592507E-01  0.000000E+00  0.000000E+00  0.000000E+00
     911  6.743306E-01  1.718926E-02 -1.615790E-01  0.000000E+00  0.000000E+00  0.000000E+00  0.000000E+00  0.000000E+00  0.000000E+00  6.743306E-01  1.718926E-02 -1.615790E-01  0.000000E+00  0.000000E+00  0.000000E+00
     921  6.804615E-01  1.840356E-02 -1.640393E-01  0.000000E+00  0.000000E+00  0.000000E+00  0.000000E+00  0.000000E+00  0.000000E+00  6.804615E-01  1.840356E-02 -1.640393E-01  0.000000E+00  0.000000E+00  0.000000E+00
     931  6.871833E-01  1.970108E-02 -1.666051E-01  0.000000E+00  0.000000E+00  0.000000E+00  0.000000E+00  0.000000E+00  0.000000E+00  6.871833E-01  1.970108E-02 -1.666051E-01  0.000000E+00  0.000000E+00  0.000000E+00
     941  6.945008E-01  2.109802E-02 -1.692747E-01  0.000000E+00  0.000000E+00  0.000000E+00  0.000000E+00  0.000000E+00  0.000000E+00  6.945008E-01  2.109802E-02 -1.692747E-01  0.000000E+00  0.000000E+00  0.000000E+00
     951  7.024307E-01  2.260056E-02 -1.720655E-01  0.000000E+00  0.000000E+00  0.000000E+00  0.000000E+00  0.000000E+00  0.000000E+00  7.024307E-01  2.260056E-02 -1.720655E-01  0.000000E+00  0.000000E+00  0.000000E+00
     961  7.109772E-01  2.419878E-02 -1.750013E-01  0.000000E+00  0.000000E+00  0.000000E+00  0.000000E+00  0.000000E+00  0.000000E+00  7.109772E-01  2.419878E-02 -1.750013E-01  0.000000E+00  0.000000E+00  0.000000E+00
     971  7.201072E-01  2.586358E-02 -1.780976E-01  0.000000E+00  0.000000E+00  0.000000E+00  0.000000E+00  0.000000E+00  0.000000E+00  7.201072E-01  2.586358E-02 -1.780976E-01  0.000000E+00  0.000000E+00  0.000000E+00
     981  7.297373E-01  2.754726E-02 -1.813502E-01  0.000000E+00  0.000000E+00  0.000000E+00  0.000000E+00  0.000000E+00  0.000000E+00  7.297373E-01  2.754726E-02 -1.813502E-01  0.000000E+00  0.000000E+00  0.000000E+00
     991  7.397325E-01  2.918775E-02 -1.847304E-01  0.000000E+00  0.000000E+00  0.000000E+00  0.000000E+00  0.000000E+00  0.000000E+00  7.397325E-01  2.918775E-02 -1.847304E-01  0.000000E+00  0.000000E+00  0.000000E+00
    1001  7.499187E-01  3.071572E-02 -1.881881E-01  0.000000E+00  0.000000E+00  0.000000E+00  0.000000E+00  0.000000E+00  0.000000E+00  7.499187E-01  3.071572E-02 -1.881881E-01  0.000000E+00  0.000000E+00  0.000000E+00
    1011  7.601029E-01  3.206329E-02 -1.916595E-01  0.000000E+00  0.000000E+00  0.000000E+00  0.000000E+00  0.000000E+00  0.000000E+00  7.601029E-01  3.206329E-02 -1.916595E-01  0.000000E+00  0.000000E+00  0.000000E+00
    1021  7.700964E-01  3.317257E-02 -1.950788E-01  0.000000E+00  0.000000E+00  0.000000E+00  0.000000E+00  0.000000E+00  0.000000E+00  7.700964E-01  3.317257E-02 -1.950788E-01  0.000000E+00  0.000000E+00  0.000000E+00
    1031  7.797354E-01  3.400247E-02 -1.983881E-01  0.000000E+00  0.000000E+00  0.000000E+00  0.000000E+00  0.000000E+00  0.000000E+00  7.797354E-01  3.400247E-02 -1.983881E-01  0.000000E+00  0.000000E+00  0.000000E+00
    1041  7.888937E-01  3.453262E-02 -2.015454E-01  0.000000E+00  0.000000E+00  0.000000E+00  0.000000E+00  0.000000E+00  0.000000E+00  7.888937E-01  3.453262E-02 -2.015454E-01  0.000000E+00  0.000000E+00  0.000000E+00
    1051  7.974880E-01  3.476362E-02 -2.045282E-01  0.000000E+00  0.000000E+00  0.000000E+00  0.000000E+00  0.000000E+00  0.000000E+00  7.974880E-01  3.476362E-02 -2.045282E-01  0.000000E+00  0.000000E+00  0.000000E+00
    1061  8.054747E-01  3.471408E-02 -2.073327E-01  0.000000E+00  0.000000E+00  0.000000E+00  0.000000E+00  0.000000E+00  0.000000E+00  8.054747E-01  3.471408E-02 -2.073327E-01  0.000000E+00  0.000000E+00  0.000000E+00
    1071  8.128433E-01  3.441539E-02 -2.099684E-01  0.000000E+00  0.000000E+00  0.000000E+00  0.000000E+00  0.000000E+00  0.000000E+00  8.128433E-01  3.441539E-02 -2.099684E-01  0.000000E+00  0.000000E+00  0.000000E+00
    1081  8.196097E-01  3.390591E-02 -2.124522E-01  0.000000E+00  0.000000E+00  0.000000E+00  0.000000E+00  0.000000E+00  0.000000E+00  8.196097E-01  3.390591E-02 -2.124522E-01  0.000000E+00  0.000000E+00  0.000000E+00
    1091  8.258109E-01  3.322613E-02 -2.148009E-01  0.000000E+00  0.000000E+00  0.000000E+00  0.000000E+00  0.000000E+00  0.000000E+00  8.258109E-01  3.322613E-02 -2.148009E-01  0.000000E+00  0.000000E+00  0.000000E+00
    1101  8.315019E-01  3.241570E-02 -2.170260E-01  0.000000E+00  0.000000E+00  0.000000E+00  0.000000E+00  0.000000E+00  0.000000E+00  8.315019E-01  3.241570E-02 -2.170260E-01  0.000000E+00  0.000000E+00  0.000000E+00
    1111  8.367529E-01  3.151219E-02 -2.191309E-01  0.000000E+00  0.000000E+00  0.000000E+00  0.000000E+00  0.000000E+00  0.000000E+00  8.367529E-01  3.151219E-02 -2.191309E-01  0.000000E+00  0.000000E+00  0.000000E+00
    1121  8.416429E-01  3.055109E-02 -2.211107E-01  0.000000E+00  0.000000E+00  0.000000E+00  0.000000E+00  0.000000E+00  0.000000E+00  8.416429E-01  3.055109E-02 -2.211107E-01  0.000000E+00  0.000000E+00  0.000000E+00
    1131  8.462510E-01  2.956605E-02 -2.229551E-01  0.000000E+00  0.000000E+00  0.000000E+00  0.000000E+00  0.000000E+00  0.000000E+00  8.462510E-01  2.956605E-02 -2.229551E-01  0.000000E+00  0.000000E+00  0.000000E+00
    1141  8.506461E-01  2.858867E-02 -2.246521E-01  0.000000E+00  0.000000E+00  0.000000E+00  0.000000E+00  0.000000E+00  0.000000E+00  8.506461E-01  2.858867E-02 -2.246521E-01  0.000000E+00  0.000000E+00  0.000000E+00
    1151  8.548787E-01  2.764769E-02 -2.261931E-01  0.000000E+00  0.000000E+00  0.000000E+00  0.000000E+00  0.000000E+00  0.000000E+00  8.548787E-01  2.764769E-02 -2.261931E-01  0.000000E+00  0.000000E+00  0.000000E+00
    1161  8.589770E-01  2.676766E-02 -2.275764E-01  0.000000E+00  0.000000E+00  0.000000E+00  0.000000E+00  0.000000E+00  0.000000E+00  8.589770E-01  2.676766E-02 -2.275764E-01  0.000000E+00  0.000000E+00  0.000000E+00
    1171  8.629489E-01  2.596754E-02 -2.288094E-01  0.000000E+00  0.000000E+00  0.000000E+00  0.000000E+00  0.000000E+00  0.000000E+00  8.629489E-01  2.596754E-02 -2.288094E-01  0.000000E+00  0.000000E+00  0.000000E+00
    1181  8.667882E-01  2.525967E-02 -2.299075E-01  0.000000E+00  0.000000E+00  0.000000E+00  0.000000E+00  0.000000E+00  0.000000E+00  8.667882E-01  2.525967E-02 -2.299075E-01  0.000000E+00  0.000000E+00  0.000000E+00
    1191  8.704822E-01  2.464934E-02 -2.308919E-01  0.000000E+00  0.000000E+00  0.000000E+00  0.000000E+00  0.000000E+00  0.000000E+00  8.704822E-01  2.464934E-02 -2.308919E-01  0.000000E+00  0.000000E+00  0.000000E+00
    1201  8.740164E-01  2.413473E-02 -2.317848E-01  0.000000E+00  0.000000E+00  0.000000E+00  0.000000E+00  0.000000E+00  0.000000E+00  8.740164E-01  2.413473E-02 -2.317848E-01  0.000000E+00  0.000000E+00  0.000000E+00
    1211  8.773767E-01  2.370742E-02 -2.326050E-01  0.000000E+00  0.000000E+00  0.000000E+00  0.000000E+00  0.000000E+00  0.000000E+00  8.773767E-01  2.370742E-02 -2.326050E-01  0.000000E+00  0.000000E+00  0.000000E+00
    1221  8.805473E-01  2.335323E-02 -2.333640E-01  0.000000E+00  0.000000E+00  0.000000E+00  0.000000E+00  0.000000E+00  0.000000E+00  8.805473E-01  2.335323E-02 -2.333640E-01  0.000000E+00  0.000000E+00  0.000000E+00
    1231  8.835082E-01  2.305352E-02 -2.340644E-01  0.000000E+00  0.000000E+00  0.000000E+00  0.000000E+00  0.000000E+00  0.000000E+00  8.835082E-01  2.305352E-02 -2.340644E-01  0.000000E+00  0.000000E+00  0.000000E+00
    1241  8.862338E-01  2.278698E-02 -2.346999E-01  0.000000E+00  0.000000E+00  0.000000E+00  0.000000E+00  0.000000E+00  0.000000E+00  8.862338E-01  2.278698E-02 -2.346999E-01  0.000000E+00  0.000000E+00  0.000000E+00
    1251  8.886938E-01  2.253193E-02 -2.352581E-01  0.000000E+00  0.000000E+00  0.000000E+00  0.000000E+00  0.000000E+00  0.000000E+00  8.886938E-01  2.253193E-02 -2.352581E-01  0.000000E+00  0.000000E+00  0.000000E+00
    1261  8.908578E-01  2.226886E-02 -2.357238E-01  0.000000E+00  0.000000E+00  0.000000E+00  0.000000E+00  0.000000E+00  0.000000E+00  8.908578E-01  2.226886E-02 -2.357238E-01  0.000000E+00  0.000000E+00  0.000000E+00
    1271  8.927020E-01  2.198324E-02 -2.360828E-01  0.000000E+00  0.000000E+00  0.000000E+00  0.000000E+00  0.000000E+00  0.000000E+00  8.927020E-01  2.198324E-02 -2.360828E-01  0.000000E+00  0.000000E+00  0.000000E+00
    1281  8.942175E-01  2.166800E-02 -2.363254E-01  0.000000E+00  0.000000E+00  0.000000E+00  0.000000E+00  0.000000E+00  0.000000E+00  8.942175E-01  2.166800E-02 -2.363254E-01  0.000000E+00  0.000000E+00  0.000000E+00
    1291  8.954180E-01  2.132520E-02 -2.364499E-01  0.000000E+00  0.000000E+00  0.000000E+00  0.000000E+00  0.000000E+00  0.000000E+00  8.954180E-01  2.132520E-02 -2.364499E-01  0.000000E+00  0.000000E+00  0.000000E+00
    1301  8.963449E-01  2.096669E-02 -2.364646E-01  0.000000E+00  0.000000E+00  0.000000E+00  0.000000E+00  0.000000E+00  0.000000E+00  8.963449E-01  2.096669E-02 -2.364646E-01  0.000000E+00  0.000000E+00  0.000000E+00
    1311  8.970690E-01  2.061317E-02 -2.363885E-01  0.000000E+00  0.000000E+00  0.000000E+00  0.000000E+00  0.000000E+00  0.000000E+00  8.970690E-01  2.061317E-02 -2.363885E-01  0.000000E+00  0.000000E+00  0.000000E+00
    1321  8.976873E-01  2.029168E-02 -2.362512E-01  0.000000E+00  0.000000E+00  0.000000E+00  0.000000E+00  0.000000E+00  0.000000E+00  8.976873E-01  2.029168E-02 -2.362512E-01  0.000000E+00  0.000000E+00  0.000000E+00
    1331  8.983154E-01  2.003193E-02 -2.360915E-01  0.000000E+00  0.000000E+00  0.000000E+00  0.000000E+00  0.000000E+00  0.000000E+00  8.983154E-01  2.003193E-02 -2.360915E-01  0.000000E+00  0.000000E+00  0.000000E+00
    1341  8.990771E-01  1.986169E-02 -2.359549E-01  0.000000E+00  0.000000E+00  0.000000E+00  0.000000E+00  0.000000E+00  0.000000E+00  8.990771E-01  1.986169E-02 -2.359549E-01  0.000000E+00  0.000000E+00  0.000000E+00
    1351  9.000908E-01  1.980230E-02 -2.358903E-01  0.000000E+00  0.000000E+00  0.000000E+00  0.000000E+00  0.000000E+00  0.000000E+00  9.000908E-01  1.980230E-02 -2.358903E-01  0.000000E+00  0.000000E+00  0.000000E+00