 variables = x,y,"-cp"
 zone t="Cp_jmin_000"
  0.999950519027277      -7.190906577662312E-006 -0.363961232651457     
  0.999848425210164      -2.202786431364317E-005 -0.364561790542802     
  0.999739869675704      -3.780065359317234E-005 -0.364860841854639     
  0.999624444703074      -5.456621763246607E-005 -0.365136572428843     
  0.999501717822151      -7.239028412913358E-005 -0.365392747342798     
  0.999371229373061      -9.134159109748993E-005 -0.365639525043341     
  0.999232490696408      -1.114911082996622E-004 -0.365933016378189     
  0.999084982597171      -1.329138319585390E-004 -0.366240294798458     
  0.998928151520885      -1.556755472222239E-004 -0.366647481795897     
  0.998761411599954      -1.798608015831939E-004 -0.367094210442918     
  0.998584142577041      -2.055732787485144E-004 -0.367674468916344     
  0.998395683636583      -2.329088285446009E-004 -0.368277536137619     
  0.998195333020306      -2.619692394466767E-004 -0.368962743796887     
  0.997982345559863      -2.928625964649977E-004 -0.369640083002310     
  0.997755927276180      -3.256843802971508E-004 -0.370440778386407     
  0.997515236117857      -3.605419618973648E-004 -0.371215707741859     
  0.997259382938519      -3.975818247866957E-004 -0.372138506741820     
  0.996987423131747      -4.369534440111178E-004 -0.373020130362720     
  0.996698352306457      -4.788022252603622E-004 -0.374068000896677     
  0.996391104685071      -5.232824611467383E-004 -0.375057651865013     
  0.996064545310489      -5.705287757017173E-004 -0.376228840636258     
  0.995717469545085      -6.206793334300211E-004 -0.377324586804163     
  0.995348608774151      -6.739433404937623E-004 -0.378612728876499     
  0.994956618372158      -7.305472983714197E-004 -0.379806058397300     
  0.994540067843589      -7.906977726002855E-004 -0.381201325299378     
  0.994097440802924      -8.546137313532310E-004 -0.382478869122590     
  0.993627115299513      -9.224242087524622E-004 -0.383966797101507     
  0.993127386684681      -9.943626485937631E-004 -0.385313527689600     
  0.992596464885565      -1.070785363111593E-003 -0.386868586976042     
  0.992032440159447      -1.151973027089561E-003 -0.388262638411861     
  0.991433288916790      -1.238211753831788E-003 -0.389856994466429     
  0.990796845563836      -1.329639625047849E-003 -0.391272443368236     
  0.990120843598399      -1.426576958121088E-003 -0.392877488793688     
  0.989402909161396      -1.529527323952683E-003 -0.394273346098074     
  0.988640507745154      -1.638854165885872E-003 -0.395849420739730     
  0.987830936170727      -1.754773418841899E-003 -0.397190972656906     
  0.986971348521761      -1.877585647353976E-003 -0.398698890928341     
  0.986058776549836      -2.007870996242764E-003 -0.399938030882196     
  0.985090076270552      -2.146169626638874E-003 -0.401320872178918     
  0.984061878782684      -2.292691610911109E-003 -0.402415704283341     
  0.982970652698721      -2.447811032850026E-003 -0.403630834991661     
  0.981812729093725      -2.612298116371279E-003 -0.404518881815011     
  0.980584210328237      -2.786736062434320E-003 -0.405498914984030     
  0.979280925188388      -2.971262202179466E-003 -0.406140891916638     
  0.977898557719227      -3.166534808728978E-003 -0.406841083148032     
  0.976432621979564      -3.373612231559043E-003 -0.407145200941835     
  0.974878255807105      -3.592549695914168E-003 -0.407519537184899     
  0.973230431824570      -3.823950261951274E-003 -0.407465525524949     
  0.971483973629757      -4.069132613147735E-003 -0.407404866418124     
  0.969633266134774      -4.328118765340954E-003 -0.406951317643657     
  0.967672524401831      -4.601598941976932E-003 -0.406450023781673     
  0.965595797706436      -4.891000631062736E-003 -0.405481921804758     
  0.963396661946770      -5.196322023475735E-003 -0.404519521340669     
  0.961068558213988      -5.518593757245423E-003 -0.403026223431289     
  0.958604645181734      -5.858830942331594E-003 -0.401507891551270     
  0.955997710370829      -6.217413840325518E-003 -0.399509572140857     
  0.953240403573188      -6.595771835954957E-003 -0.397374446191992     
  0.950324929075312      -6.994133435052222E-003 -0.394864959065348     
  0.947243363824026      -7.413828030933448E-003 -0.392111815912966     
  0.943987401243017      -7.855348486410833E-003 -0.389066530564072     
  0.940548532638629      -8.319645947101835E-003 -0.385738618545667     
  0.936918012072206      -8.807758307222305E-003 -0.382144188628198     
  0.933086820659709      -9.320470120943454E-003 -0.378272720234764     
  0.929045729434505      -9.858610535367778E-003 -0.374175139029309     
  0.924785335229135      -1.042319342430887E-002 -0.369787977354432     
  0.920296001506855      -1.101473943138070E-002 -0.365255189753492     
  0.915568017057546      -1.163428261837557E-002 -0.360428365872360     
  0.910591518904826      -1.228247798053474E-002 -0.355499905801459     
  0.905356539043862      -1.295968439299040E-002 -0.350389449357859     
  0.899853259637222      -1.366754916491486E-002 -0.345076640521885     
  0.894071612625420      -1.440553140223065E-002 -0.339827437522663     
  0.888001926144578      -1.517548130265305E-002 -0.334228311410190     
  0.881634354807102      -1.597666973363707E-002 -0.328870629295284     
  0.874959361825577      -1.680904248481468E-002 -0.323306265394868     
  0.867968048991337      -1.767527645861696E-002 -0.317754874501516     
  0.860651278709354      -1.857306609199097E-002 -0.312326423677241     
  0.853000640736535      -1.950219720676840E-002 -0.306953992742378     
  0.845008605117864      -2.046510145424237E-002 -0.301559569803261     
  0.836667790252263      -2.146004270692975E-002 -0.296409979952685     
  0.827971583017262      -2.248531546583624E-002 -0.291356408584635     
  0.818914520771597      -2.354162889368912E-002 -0.286512441395510     
  0.809492049394791      -2.462921101698074E-002 -0.281768567028826     
  0.799700455259611      -2.574622884337473E-002 -0.277277488281310     
  0.789537101723147      -2.688979892317225E-002 -0.273057917704128     
  0.779000884847340      -2.805910063978264E-002 -0.269086451123466     
  0.768092166110161      -2.925391921276573E-002 -0.265336990376210     
  0.756812605590837      -3.047225173673933E-002 -0.261878697903771     
  0.745165431436640      -3.171185038487789E-002 -0.258665471021899     
  0.733155517081819      -3.297015436139106E-002 -0.255714378025965     
  0.720789313138657      -3.424288317751308E-002 -0.253161554700870     
  0.708075228679919      -3.552715818510261E-002 -0.250889554718021     
  0.695023651807421      -3.682132624975259E-002 -0.248921523543900     
  0.681646664067578      -3.812190665922779E-002 -0.247273180016935     
  0.667958216944580      -3.942518053748910E-002 -0.245913052097174     
  0.653974122495646      -4.072720085239104E-002 -0.244864233190097     
  0.639712022977305      -4.202380569099960E-002 -0.244147740622310     
  0.625191338641408      -4.331063511566653E-002 -0.243881496898808     
  0.610433193276417      -4.458315186273348E-002 -0.244046119998601     
  0.595460317506291      -4.583666607350885E-002 -0.244654263643143     
  0.580296930324363      -4.706636415496987E-002 -0.245695807105775     
  0.564968599819307      -4.826734175769536E-002 -0.247177411038788     
  0.549502084529173      -4.943464073421587E-002 -0.249109086062033     
  0.533925157321317      -5.056328980674282E-002 -0.251491817288353     
  0.518266414124252      -5.164834853448222E-002 -0.254355278728786     
  0.502555070216149      -5.268495403348877E-002 -0.257694109691406     
  0.486820747089359      -5.366836977267452E-002 -0.261556363192255     
  0.471093253148793      -5.459403565457564E-002 -0.265929540117779     
  0.455402361654779      -5.545761849489572E-002 -0.270878569651188     
  0.439777589382362      -5.625506194609634E-002 -0.276382804810538     
  0.424247979436614      -5.698263487182718E-002 -0.282522292979736     
  0.408841891539178      -5.763697717396151E-002 -0.289266904874856     
  0.393586802890281      -5.821514210420231E-002 -0.296709657641361     
  0.378509122421679      -5.871463415791518E-002 -0.304809135146289     
  0.363634020900931      -5.913344174779431E-002 -0.313668616025124     
  0.348985278939855      -5.947006398655323E-002 -0.323232916644098     
  0.334585154514924      -5.972353106721210E-002 -0.333612187361995     
  0.320454271140270      -5.989341791193621E-002 -0.344733843664639     
  0.306611527360006      -5.997985096032882E-002 -0.356710972315126     
  0.293074027759710      -5.998350817985559E-002 -0.369444838891380     
  0.279857050150588      -5.990444954595020E-002 -0.383040535591259     
  0.266974071532946      -5.974115934648087E-002 -0.397592633281718     
  0.254436687765421      -5.949619235958110E-002 -0.412970456372554     
  0.242254590418352      -5.917462021453175E-002 -0.429133798858107     
  0.230435657346581      -5.877950174230472E-002 -0.446112742136559     
  0.218985981513271      -5.831432783584997E-002 -0.463738309377181     
  0.207909927033704      -5.778299083409870E-002 -0.482060035784541     
  0.197210195764651      -5.718975405655877E-002 -0.500856872895410     
  0.186888097128887      -5.653653269590260E-002 -0.520084832625449     
  0.176944048773137      -5.581915391915332E-002 -0.539987588541474     
  0.167376450190071      -5.504393444449614E-002 -0.559894000506812     
  0.158181839537788      -5.422373560443759E-002 -0.579848173449072     
  0.149356008845020      -5.336402775436868E-002 -0.599480103477504     
  0.140894531792397      -5.246270433945201E-002 -0.618760264471897     
  0.132792572598136      -5.151527099780620E-002 -0.637588529189917     
  0.125042648529722      -5.053348438269398E-002 -0.655252424720537     
  0.117635874536503      -4.953175995552651E-002 -0.671516294357284     
  0.110566120219504      -4.849957833915088E-002 -0.686619033338039     
  0.103825710313917      -4.743559307191336E-002 -0.699709195650562     
  9.740302246356181E-002 -4.636046448358892E-002 -0.710300618256321     
  9.128993515794470E-002 -4.526959883528320E-002 -0.718793369244395     
  8.547868265721659E-002 -4.415662563251337E-002 -0.724330546783205     
  7.995619932694853E-002 -4.304174403757182E-002 -0.726327211935182     
  7.471505784356669E-002 -4.191565216614326E-002 -0.725537608393981     
  6.974632251942237E-002 -4.077646030434248E-002 -0.720582434892843     
  6.503603862677809E-002 -3.964424687098558E-002 -0.711591340864326     
  6.057856107812076E-002 -3.850377417336122E-002 -0.699168635351923     
  5.636080767509588E-002 -3.736914404653564E-002 -0.681236255476235     
  5.237588258684633E-002 -3.623316124696991E-002 -0.660359702841326     
  4.861410553994727E-002 -3.509722737101816E-002 -0.633462159270146     
  4.506419764092662E-002 -3.397080608324016E-002 -0.603306149192512     
  4.171874950925059E-002 -3.284883862407187E-002 -0.567524478757286     
  3.856790851486247E-002 -3.173650925395256E-002 -0.528114729078545     
  3.560346516272939E-002 -3.063303656780824E-002 -0.483483174605085     
  3.281757752056591E-002 -2.953898224397961E-002 -0.435281282875295     
  3.020058692334526E-002 -2.845835883391527E-002 -0.382137139880579     
  2.774746245235360E-002 -2.738664697764612E-002 -0.325833416032729     
  2.544607444234526E-002 -2.633330383948955E-002 -0.264858262559253     
  2.329535049163844E-002 -2.528815401523145E-002 -0.201226848391234     
  2.128592513596894E-002 -2.425446633946177E-002 -0.133536825205843     
  1.940874743989363E-002 -2.324054043858789E-002 -6.332651713231252E-002
  1.766335891244597E-002 -2.223383174114062E-002  9.885480022436388E-003
  1.603176836942877E-002 -2.125649773259790E-002  8.552333917610899E-002
  1.452243875938164E-002 -2.028562863836164E-002  0.163431907382422     
  1.311916283017667E-002 -1.933635596839932E-002  0.242867157974015     
  1.181952386836871E-002 -1.840781632522546E-002  0.324628609431103     
  1.062806782822701E-002 -1.748513233492494E-002  0.406876873989169     
  9.514649837480404E-003 -1.660112649992002E-002  0.490563314769701     
  8.499029381182965E-003 -1.572832721528210E-002  0.575400064522708     
  7.579991635020211E-003 -1.486138387836461E-002  0.659790791282070     
  6.717937280030006E-003 -1.403936822746698E-002  0.744845637058874     
  5.940354364939227E-003 -1.323182896156102E-002  0.830824287052000     
  5.249809497187674E-003 -1.243113450084882E-002  0.914643168208857     
  4.606505349093348E-003 -1.166981336097379E-002  0.999386450963395     
  4.019084760469083E-003 -1.093876117669639E-002   1.08362884033881     
  3.510512539861677E-003 -1.021691714003041E-002   1.16684384221462     
  3.057634082064498E-003 -9.517637515266138E-003   1.24785588180690     
  2.631117457770227E-003 -8.859062615407042E-003   1.32973416270143     
  2.251275171854528E-003 -8.226930114444621E-003   1.41046493435618     
  1.938279788374575E-003 -7.607223007985909E-003   1.48910644461148     
  1.666444256633093E-003 -7.011216243201864E-003   1.56513954176349     
  1.410520706634499E-003 -6.450096929293438E-003   1.64219539552301     
  1.169595613052854E-003 -5.921862137244775E-003   1.71774596800891     
  9.714139556434853E-004 -5.414313495089066E-003   1.79341400019098     
  8.250585825617662E-004 -4.922097709573018E-003   1.86381367099718     
  6.988865456272197E-004 -4.454648652672559E-003   1.93439600282830     
  5.801392403548267E-004 -4.014707147346485E-003   2.00405100708209     
  4.683858810181629E-004 -3.600677195095761E-003   2.07402690390258     
  3.632199696889105E-004 -3.211052780183306E-003   2.14291135150870     
  2.743133056950509E-004 -2.842623994983526E-003   2.21174088478467     
  2.210749553935853E-004 -2.490532946816359E-003   2.27748636842292     
  1.913459007185647E-004 -2.155618528247178E-003   2.34049014761091     
  1.633742378795988E-004 -1.840502111041751E-003   2.40375765082785     
  1.370570834159368E-004 -1.544024655503801E-003   2.46708321622569     
  1.122974612960403E-004 -1.265093672432821E-003   2.52961361823269     
  8.900397712352515E-005 -1.002679552866129E-003   2.59263283465069     
  6.709050874131872E-005 -7.558120825648265E-004   2.65472375083204     
  4.647591259843153E-005 -5.235771340711596E-004   2.71736869086012     
  2.708374524285073E-005 -3.051135291669230E-004   2.77910131801809     
  8.841999307285242E-006 -9.961006461039270E-005   2.84119523871459     
  8.841999307285242E-006  9.961006461028181E-005   2.90221734038808     
  2.708374524285073E-005  3.051135291667098E-004   2.96088266628958     
  4.647591259843153E-005  5.235771340709393E-004   3.02217971242518     
  6.709050874131872E-005  7.558120825646010E-004   3.08535763801380     
  8.900397712352515E-005  1.002679552865986E-003   3.14991258217238     
  1.122974612960403E-004  1.265093672432764E-003   3.21719714523402     
  1.370570834159368E-004  1.544024655503732E-003   3.28601504898732     
  1.633742378795988E-004  1.840502111041621E-003   3.35796068447713     
  1.913459007184537E-004  2.155618528247007E-003   3.43186071315268     
  2.210749553934743E-004  2.490532946816264E-003   3.50889856846489     
  2.743133056950509E-004  2.842623994983483E-003   3.58742624735955     
  3.632199696889105E-004  3.211052780183224E-003   3.66254287448626     
  4.683858810181629E-004  3.600677195095709E-003   3.73898224146332     
  5.801392403548267E-004  4.014707147346560E-003   3.81947709619046     
  6.988865456272197E-004  4.454648652672678E-003   3.90250786668073     
  8.250585825617662E-004  4.922097709573131E-003   3.98969207135612     
  9.714139556435963E-004  5.414313495089258E-003   4.07893068384701     
  1.169595613053076E-003  5.921862137244993E-003   4.16699022777426     
  1.410520706634721E-003  6.450096929293682E-003   4.24807047829288     
  1.666444256633204E-003  7.011216243202129E-003   4.33728238876346     
  1.938279788374575E-003  7.607223007986173E-003   4.42802609554845     
  2.251275171854639E-003  8.226930114444923E-003   4.52257503486418     
  2.631117457770449E-003  8.859062615407375E-003   4.60837854750978     
  3.057634082064720E-003  9.517637515266467E-003   4.69218148203170     
  3.510512539861899E-003  1.021691714003073E-002   4.78107183139105     
  4.019084760469305E-003  1.093876117669672E-002   4.87195068581451     
  4.606505349093681E-003  1.166981336097417E-002   4.95050938821506     
  5.249809497188118E-003  1.243113450084921E-002   5.02777718324113     
  5.940354364939671E-003  1.323182896156143E-002   5.10843372705353     
  6.717937280030450E-003  1.403936822746736E-002   5.18569280778737     
  7.579991635020655E-003  1.486138387836498E-002   5.24409641976461     
  8.499029381183409E-003  1.572832721528245E-002   5.31209185220780     
  9.514649837480849E-003  1.660112649992034E-002   5.37443971774670     
  1.062806782822745E-002  1.748513233492523E-002   5.41487309440862     
  1.181952386836915E-002  1.840781632522574E-002   5.46405504606074     
  1.311916283017700E-002  1.933635596839959E-002   5.50211158052684     
  1.452243875938186E-002  2.028562863836187E-002   5.52302959370969     
  1.603176836942910E-002  2.125649773259813E-002   5.55014139791934     
  1.766335891244641E-002  2.223383174114088E-002   5.55383749760280     
  1.940874743989407E-002  2.324054043858812E-002   5.55551507125020     
  2.128592513596939E-002  2.425446633946199E-002   5.54996434086713     
  2.329535049163889E-002  2.528815401523170E-002   5.52198082192961     
  2.544607444234570E-002  2.633330383948980E-002   5.50260890416935     
  2.774746245235415E-002  2.738664697764639E-002   5.45533358367083     
  3.020058692334593E-002  2.845835883391554E-002   5.41607112635634     
  3.281757752056658E-002  2.953898224397986E-002   5.35568849064435     
  3.560346516273005E-002  3.063303656780848E-002   5.29643530175492     
  3.856790851486314E-002  3.173650925395279E-002   5.22109161673455     
  4.171874950925125E-002  3.284883862407208E-002   5.14391813317597     
  4.506419764092739E-002  3.397080608324039E-002   5.05213153223070     
  4.861410553994816E-002  3.509722737101842E-002   4.95979601349573     
  5.237588258684733E-002  3.623316124697021E-002   4.85113071387966     
  5.636080767509699E-002  3.736914404653596E-002   4.74642730089645     
  6.057856107812187E-002  3.850377417336152E-002   4.62178035631702     
  6.503603862677920E-002  3.964424687098586E-002   4.50364128604596     
  6.974632251942359E-002  4.077646030434276E-002   4.37117727553738     
  7.471505784356791E-002  4.191565216614354E-002   4.23889941046766     
  7.995619932694975E-002  4.304174403757209E-002   4.10451853660165     
  8.547868265721803E-002  4.415662563251363E-002   3.96028991312636     
  9.128993515794637E-002  4.526959883528348E-002   3.82164641450517     
  9.740302246356347E-002  4.636046448358921E-002   3.67808937662615     
  0.103825710313919       4.743559307191365E-002   3.53306680786644     
  0.110566120219506       4.849957833915118E-002   3.39212869160641     
  0.117635874536505       4.953175995552680E-002   3.25174193077113     
  0.125042648529724       5.053348438269425E-002   3.10954606137226     
  0.132792572598138       5.151527099780649E-002   2.97453877173288     
  0.140894531792399       5.246270433945228E-002   2.84293495509024     
  0.149356008845023       5.336402775436895E-002   2.71316117287519     
  0.158181839537791       5.422373560443786E-002   2.58719180958793     
  0.167376450190074       5.504393444449639E-002   2.46821069834901     
  0.176944048773140       5.581915391915356E-002   2.35433078150381     
  0.186888097128891       5.653653269590281E-002   2.24632039426579     
  0.197210195764654       5.718975405655896E-002   2.14042213960927     
  0.207909927033707       5.778299083409888E-002   2.04107186737818     
  0.218985981513274       5.831432783585012E-002   1.94730793958391     
  0.230435657346584       5.877950174230485E-002   1.85918130550890     
  0.242254590418356       5.917462021453186E-002   1.77608669924469     
  0.254436687765425       5.949619235958120E-002   1.69794443765846     
  0.266974071532951       5.974115934648094E-002   1.62412468218951     
  0.279857050150593       5.990444954595026E-002   1.55452236017629     
  0.293074027759714       5.998350817985563E-002   1.48766921682284     
  0.306611527360011       5.997985096032882E-002   1.42480825396322     
  0.320454271140275       5.989341791193618E-002   1.36547102198959     
  0.334585154514929       5.972353106721202E-002   1.30948556618011     
  0.348985278939860       5.947006398655311E-002   1.25645063319460     
  0.363634020900936       5.913344174779415E-002   1.20624737585812     
  0.378509122421684       5.871463415791503E-002   1.15854157392994     
  0.393586802890286       5.821514210420214E-002   1.11325114599424     
  0.408841891539183       5.763697717396130E-002   1.07010148708987     
  0.424247979436620       5.698263487182694E-002   1.02903658897279     
  0.439777589382368       5.625506194609606E-002  0.989830859759139     
  0.455402361654785       5.545761849489542E-002  0.952443989450098     
  0.471093253148799       5.459403565457532E-002  0.916689359215257     
  0.486820747089365       5.366836977267417E-002  0.882533004763711     
  0.502555070216155       5.268495403348840E-002  0.849817257985057     
  0.518266414124258       5.164834853448182E-002  0.818498899261701     
  0.533925157321323       5.056328980674243E-002  0.788434226316244     
  0.549502084529179       4.943464073421546E-002  0.759572037836858     
  0.564968599819313       4.826734175769493E-002  0.731782096053904     
  0.580296930324369       4.706636415496942E-002  0.704999738317672     
  0.595460317506297       4.583666607350841E-002  0.679105197211523     
  0.610433193276423       4.458315186273303E-002  0.654019433197844     
  0.625191338641413       4.331063511566605E-002  0.629631257669751     
  0.639712022977310       4.202380569099910E-002  0.605849236745942     
  0.653974122495652       4.072720085239055E-002  0.582570573172181     
  0.667958216944586       3.942518053748860E-002  0.559695471226757     
  0.681646664067583       3.812190665922729E-002  0.537132013318103     
  0.695023651807426       3.682132624975208E-002  0.514773638203125     
  0.708075228679924       3.552715818510210E-002  0.492550038227270     
  0.720789313138662       3.424288317751254E-002  0.470300068751716     
  0.733155517081824       3.297015436139052E-002  0.447962340649207     
  0.745165431436645       3.171185038487738E-002  0.424775215945367     
  0.756812605590841       3.047225173673885E-002  0.401625807378305     
  0.768092166110165       2.925391921276525E-002  0.378126432681213     
  0.779000884847344       2.805910063978216E-002  0.354353980769331     
  0.789537101723151       2.688979892317177E-002  0.330179246775743     
  0.799700455259615       2.574622884337426E-002  0.305576824448402     
  0.809492049394795       2.462921101698028E-002  0.279899897464545     
  0.818914520771601       2.354162889368867E-002  0.253793187715064     
  0.827971583017265       2.248531546583579E-002  0.227374000511207     
  0.836667790252267       2.146004270692930E-002  0.200546813929010     
  0.845008605117867       2.046510145424194E-002  0.172981318939377     
  0.853000640736538       1.950219720676798E-002  0.144769137878997     
  0.860651278709357       1.857306609199058E-002  0.116594450902685     
  0.867968048991340       1.767527645861659E-002  8.822225426413177E-002
  0.874959361825580       1.680904248481432E-002  5.891732242981873E-002
  0.881634354807105       1.597666973363673E-002  3.008511616626031E-002
  0.888001926144580       1.517548130265273E-002  1.379796092812358E-003
  0.894071612625422       1.440553140223034E-002 -2.795747709376339E-002
  0.899853259637224       1.366754916491456E-002 -5.629637208544480E-002
  0.905356539043864       1.295968439299011E-002 -8.474482789362225E-002
  0.910591518904828       1.228247798053446E-002 -0.112635757439018     
  0.915568017057548       1.163428261837529E-002 -0.139687773798584     
  0.920296001506857       1.101473943138043E-002 -0.166589934052114     
  0.924785335229137       1.042319342430861E-002 -0.192080019341044     
  0.929045729434507       9.858610535367525E-003 -0.217262269107181     
  0.933086820659711       9.320470120943211E-003 -0.240941832005672     
  0.936918012072208       8.807758307222070E-003 -0.263955502520997     
  0.940548532638631       8.319645947101609E-003 -0.285460381421859     
  0.943987401243019       7.855348486410615E-003 -0.306074965527972     
  0.947243363824028       7.413828030933243E-003 -0.325099289520702     
  0.950324929075314       6.994133435052048E-003 -0.343140327420057     
  0.953240403573190       6.595771835954800E-003 -0.359603969715207     
  0.955997710370830       6.217413840325344E-003 -0.374811601789940     
  0.958604645181736       5.858830942331399E-003 -0.388725540554181     
  0.961068558213989       5.518593757245211E-003 -0.401007460775349     
  0.963396661946771       5.196322023475506E-003 -0.412380396121685     
  0.965595797706437       4.891000631062511E-003 -0.421879790944917     
  0.967672524401832       4.601598941976731E-003 -0.430666107031582     
  0.969633266134775       4.328118765340781E-003 -0.437707042891385     
  0.971483973629758       4.069132613147574E-003 -0.443871316749527     
  0.973230431824571       3.823950261951115E-003 -0.448641111523261     
  0.974878255807106       3.592549695914026E-003 -0.452602345455391     
  0.976432621979565       3.373612231558908E-003 -0.455085104343043     
  0.977898557719228       3.166534808728841E-003 -0.457132119418417     
  0.979280925188389       2.971262202179325E-003 -0.457757828749085     
  0.980584210328237       2.786736062434180E-003 -0.457966831511525     
  0.981812729093726       2.612298116371144E-003 -0.457034436227309     
  0.982970652698722       2.447811032849902E-003 -0.455822638206764     
  0.984061878782685       2.292691610910997E-003 -0.453519071291645     
  0.985090076270553       2.146169626638764E-003 -0.451126914965111     
  0.986058776549837       2.007870996242638E-003 -0.447819062546394     
  0.986971348521762       1.877585647353850E-003 -0.444543464373846     
  0.987830936170728       1.754773418841784E-003 -0.440445982219879     
  0.988640507745155       1.638854165885759E-003 -0.436544611378865     
  0.989402909161397       1.529527323952571E-003 -0.431970362985426     
  0.990120843598400       1.426576958120972E-003 -0.427692129259465     
  0.990796845563837       1.329639625047739E-003 -0.422848276347433     
  0.991433288916791       1.238211753831686E-003 -0.418405660447344     
  0.992032440159447       1.151973027089460E-003 -0.413531100777534     
  0.992596464885566       1.070785363111486E-003 -0.409143019559814     
  0.993127386684681       9.943626485936540E-004 -0.404397499939899     
  0.993627115299514       9.224242087523592E-004 -0.400219338499080     
  0.994097440802925       8.546137313531353E-004 -0.395766441556226     
  0.994540067843590       7.906977726001834E-004 -0.391937441684624     
  0.994956618372159       7.305472983713144E-004 -0.387913282751778     
  0.995348608774152       6.739433404936558E-004 -0.384520960178368     
  0.995717469545086       6.206793334299079E-004 -0.381009194739542     
  0.996064545310490       5.705287757016100E-004 -0.378127183737911     
  0.996391104685072       5.232824611466228E-004 -0.375182602386332     
  0.996698352306458       4.788022252602527E-004 -0.372851214387262     
  0.996987423131748       4.369534440110160E-004 -0.370495575095096     
  0.997259382938520       3.975818247865938E-004 -0.368713567176949     
  0.997515236117858       3.605419618972581E-004 -0.366937444552510     
  0.997755927276181       3.256843802970459E-004 -0.365679646482734     
  0.997982345559864       2.928625964649020E-004 -0.364444267234601     
  0.998195333020307       2.619692394465794E-004 -0.363659922860149     
  0.998395683636583       2.329088285444983E-004 -0.362902972274527     
  0.998584142577042       2.055732787484207E-004 -0.362517373379918     
  0.998761411599955       1.798608015831094E-004 -0.362156499089309     
  0.998928151520886       1.556755472221381E-004 -0.362083336612844     
  0.999084982597171       1.329138319584505E-004 -0.362024385692494     
  0.999232490696409       1.114911082995802E-004 -0.362170466947140     
  0.999371229373062       9.134159109742271E-005 -0.362316285745864     
  0.999501717822152       7.239028412906411E-005 -0.362592147736013     
  0.999624444703074       5.456621763239993E-005 -0.362844817407784     
  0.999739869675705       3.780065359310569E-005 -0.363189192625971     
  0.999848425210164       2.202786431357840E-005 -0.363433164107728     
  0.999950519027277       7.190906577634323E-006 -0.363936999653045     
