 variables=iter,pressure,tk,tw
 zone t="error", f=point
       1,  0.000000,  0.000000,  0.000000
      11, -0.144240,  0.009265, -0.001801
      21, -0.223987,  0.073688,  0.014880
      31, -0.242103,  0.232438,  0.026546
      41, -0.259864,  0.463858,  0.032235
      51, -0.267991,  0.596169,  0.029996
      61, -0.276974,  0.693163,  0.020085
      71, -0.285691,  0.770492,  0.005690
      81, -0.288965,  0.833395, -0.012024
      91, -0.286866,  0.885389, -0.031504
     101, -0.283219,  0.929488, -0.051376
     111, -0.280255,  0.968424, -0.070697
     121, -0.277079,  1.004443, -0.088976
     131, -0.274729,  1.039051, -0.105973
     141, -0.276513,  1.072926, -0.121505
     151, -0.282943,  1.106070, -0.135283
     161, -0.293100,  1.138127, -0.147006
     171, -0.305826,  1.168675, -0.156610
     181, -0.318974,  1.197523, -0.164711
     191, -0.331041,  1.224704, -0.172696
     201, -0.342248,  1.250269, -0.182229
     211, -0.353423,  1.274108, -0.194165
     221, -0.364631,  1.295781, -0.207873
     231, -0.375067,  1.314559, -0.221236
     241, -0.384029,  1.329803, -0.232843
     251, -0.391694,  1.341529, -0.242133
     261, -0.398763,  1.350652, -0.249085
     271, -0.405614,  1.358584, -0.253852
     281, -0.412145,  1.366556, -0.256701
     291, -0.418296,  1.375344, -0.258079
     301, -0.424316,  1.385162, -0.258474
     311, -0.430435,  1.395666, -0.258402
     321, -0.436580,  1.406204, -0.258189
     331, -0.442528,  1.416283, -0.257854
     341, -0.448200,  1.425810, -0.257351
     351, -0.453744,  1.435083, -0.256699
     361, -0.459365,  1.444492, -0.255977
     371, -0.465068,  1.454256, -0.255289
     381, -0.470612,  1.464386, -0.254763
     391, -0.475722,  1.474822, -0.254450
     401, -0.480338,  1.485600, -0.254230
     411, -0.484653,  1.496889, -0.253915
     421, -0.488946,  1.508871, -0.253380
     431, -0.493422,  1.521608, -0.252575
     441, -0.498194,  1.535045, -0.251583
     451, -0.503296,  1.549081, -0.250526
     461, -0.508646,  1.563608, -0.249508
     471, -0.514037,  1.578509, -0.248589
     481, -0.519160,  1.593687, -0.247775
     491, -0.523689,  1.609020, -0.247120
     501, -0.527596,  1.624350, -0.246624
     511, -0.531507,  1.639551, -0.246289
     521, -0.536399,  1.654524, -0.246119
     531, -0.542672,  1.669215, -0.246146
     541, -0.549687,  1.683580, -0.246427
     551, -0.556410,  1.697595, -0.247029
     561, -0.562339,  1.711233, -0.247999
     571, -0.567687,  1.724471, -0.249344
     581, -0.572922,  1.737307, -0.250986
     591, -0.578307,  1.749770, -0.252825
     601, -0.583762,  1.761910, -0.254784
     611, -0.589026,  1.773779, -0.256839
     621, -0.593928,  1.785418, -0.258998
     631, -0.598562,  1.796848, -0.261275
     641, -0.603247,  1.808074, -0.263661
     651, -0.608328,  1.819092, -0.266045
     661, -0.614007,  1.829894, -0.268243
     671, -0.620238,  1.840460, -0.270084
     681, -0.626689,  1.850735, -0.271472
     691, -0.632916,  1.860587, -0.272588
     701, -0.638795,  1.869809, -0.273918
     711, -0.644763,  1.878166, -0.276133
     721, -0.651340,  1.885510, -0.279820
     731, -0.658433,  1.891876, -0.285221
     741, -0.665471,  1.897497, -0.292092
     751, -0.672151,  1.902709, -0.299858
     761, -0.678625,  1.907829, -0.307896
     771, -0.685035,  1.913106, -0.315763
     781, -0.691303,  1.918763, -0.323229
     791, -0.697322,  1.925023, -0.330192
     801, -0.703083,  1.932079, -0.336622
     811, -0.708664,  1.940029, -0.342558
     821, -0.714191,  1.948839, -0.348128
     831, -0.719783,  1.958384, -0.353477
     841, -0.725498,  1.968503, -0.358749
     851, -0.731316,  1.979056, -0.364094
     861, -0.737165,  1.989949, -0.369630
     871, -0.742942,  2.001137, -0.375443
     881, -0.748529,  2.012616, -0.381557
     891, -0.753807,  2.024402, -0.387994
     901, -0.758699,  2.036531, -0.394720
     911, -0.763199,  2.049045, -0.401673
     921, -0.767414,  2.061995, -0.408763
     931, -0.771555,  2.075439, -0.415881
     941, -0.775869,  2.089438, -0.422958
     951, -0.780521,  2.104035, -0.429923
     961, -0.785519,  2.119252, -0.436778
     971, -0.790741,  2.135110, -0.443550
     981, -0.796005,  2.151618, -0.450289
     991, -0.801269,  2.168756, -0.457064
    1001, -0.806459,  2.186431, -0.463948
    1011, -0.811532,  2.204675, -0.470915
    1021, -0.816317,  2.223431, -0.477986
    1031, -0.820654,  2.242636, -0.485176
    1041, -0.824412,  2.262195, -0.492508
    1051, -0.827577,  2.282101, -0.499987
    1061, -0.830504,  2.302310, -0.507614
    1071, -0.833920,  2.322781, -0.515394
    1081, -0.838560,  2.343510, -0.523346
    1091, -0.844593,  2.364512, -0.531467
    1101, -0.851341,  2.385785, -0.539779
    1111, -0.857692,  2.407280, -0.548264
    1121, -0.862928,  2.428959, -0.556931
    1131, -0.867124,  2.450852, -0.565752
    1141, -0.870756,  2.472880, -0.574714
    1151, -0.874073,  2.495145, -0.583791
    1161, -0.876886,  2.517639, -0.592977
    1171, -0.878849,  2.540378, -0.602217
    1181, -0.879878,  2.563311, -0.611490
    1191, -0.880504,  2.586353, -0.620719
    1201, -0.881448,  2.609498, -0.629837
    1211, -0.883415,  2.632718, -0.638745
    1221, -0.886713,  2.655981, -0.647348
    1231, -0.891245,  2.679264, -0.655561
    1241, -0.896711,  2.702566, -0.663279
    1251, -0.902721,  2.725346, -0.670448
    1261, -0.908857,  2.747302, -0.676997
    1271, -0.914683,  2.769186, -0.683101
    1281, -0.919838,  2.791223, -0.688753
    1291, -0.924129,  2.813497, -0.694063
    1301, -0.927551,  2.836075, -0.699160
    1311, -0.930230,  2.859007, -0.704156
    1321, -0.932337,  2.882313, -0.709126
    1331, -0.934067,  2.905994, -0.714093
    1341, -0.935674,  2.930021, -0.719056
    1351, -0.937483,  2.954343, -0.723975
    1361, -0.939813,  2.978617, -0.728883
    1371, -0.942793,  3.003048, -0.733637
    1381, -0.946189,  3.027593, -0.738163
    1391, -0.949399,  3.052190, -0.742399
    1401, -0.951747,  3.076779, -0.746284
    1411, -0.952993,  3.101306, -0.749796
    1421, -0.953677,  3.125628, -0.753089
    1431, -0.954928,  3.149652, -0.756056
    1441, -0.957748,  3.173489, -0.758638
    1451, -0.962212,  3.197215, -0.760808
    1461, -0.967107,  3.220826, -0.762673
    1471, -0.970349,  3.244342, -0.764349
    1481, -0.970200,  3.267762, -0.765922
    1491, -0.966579,  3.291082, -0.767559
    1501, -0.961382,  3.314225, -0.769432
    1511, -0.957545,  3.337281, -0.771627
    1521, -0.957674,  3.360273, -0.774174
    1531, -0.963108,  3.383210, -0.777098
    1541, -0.973534,  3.406137, -0.780352
    1551, -0.986982,  3.429089, -0.783898
    1561, -1.000165,  3.452140, -0.787622
    1571, -1.009354,  3.475349, -0.791420
    1581, -1.011753,  3.498806, -0.795128
    1591, -1.006692,  3.522583, -0.798579
    1601, -0.995736,  3.546737, -0.801631
    1611, -0.981733,  3.571302, -0.804218
    1621, -0.967697,  3.596275, -0.806343
    1631, -0.956139,  3.621618, -0.808056
    1641, -0.948851,  3.647137, -0.809499
    1651, -0.946855,  3.672830, -0.810735
    1661, -0.950371,  3.698544, -0.811889
    1671, -0.958800,  3.723838, -0.813108
    1681, -0.970783,  3.748627, -0.814569
    1691, -0.984445,  3.772568, -0.816439
    1701, -0.997780,  3.795414, -0.818853
    1711, -1.008978,  3.816885, -0.822019
    1721, -1.016467,  3.836776, -0.826115
    1731, -1.018850,  3.854983, -0.831285
    1741, -1.015211,  3.871501, -0.837655
    1751, -1.005793,  3.886534, -0.845180
    1761, -0.992246,  3.900312, -0.853840
    1771, -0.976946,  3.912942, -0.863687
    1781, -0.961953,  3.924751, -0.874371
    1791, -0.948528,  3.935958, -0.885819
    1801, -0.937430,  3.946713, -0.897791
    1811, -0.929434,  3.957980, -0.909805
    1821, -0.925462,  3.970619, -0.921500
    1831, -0.926157,  3.985694, -0.932551
    1841, -0.931234,  4.003737, -0.942951
    1851, -0.939109,  4.024804, -0.952469
    1861, -0.947169,  4.048806, -0.960959
    1871, -0.952745,  4.075086, -0.968207
    1881, -0.954314,  4.103033, -0.973908
    1891, -0.952030,  4.132050, -0.977731
    1901, -0.947253,  4.161559, -0.979453
    1911, -0.941668,  4.191091, -0.979292
    1921, -0.936734,  4.220191, -0.977759
    1931, -0.933530,  4.248557, -0.975424
    1941, -0.932700,  4.275995, -0.972348
    1951, -0.934256,  4.302352, -0.968635
    1961, -0.937352,  4.327710, -0.963889
    1971, -0.940284,  4.351975, -0.958383
    1981, -0.941006,  4.375428, -0.951521
    1991, -0.938080,  4.398121, -0.943254
    2001, -0.931436,  4.420441, -0.932731
    2011, -0.922296,  4.442555, -0.919727
    2021, -0.912346,  4.464753, -0.903648
    2031, -0.902907,  4.487172, -0.883727
    2041, -0.894637,  4.509914, -0.860596
    2051, -0.887728,  4.532503, -0.834560
    2061, -0.882258,  4.554783, -0.806688
    2071, -0.878406,  4.576103, -0.778885
    2081, -0.876433,  4.595438, -0.753763
    2091, -0.876545,  4.611631, -0.734520
    2101, -0.878785,  4.623576, -0.723246
    2111, -0.882980,  4.630074, -0.722326
    2121, -0.888683,  4.630196, -0.733669
    2131, -0.895053,  4.623447, -0.757673
    2141, -0.900752,  4.610494, -0.794399
    2151, -0.904110,  4.593329, -0.840441
    2161, -0.903716,  4.575407, -0.887770
    2171, -0.899238,  4.561263, -0.928318
    2181, -0.891810,  4.554683, -0.953243
    2191, -0.883572,  4.557123, -0.964708
    2201, -0.876704,  4.566957, -0.969552
    2211, -0.872607,  4.581346, -0.979223
    2221, -0.871575,  4.597768, -1.002034
    2231, -0.872903,  4.614707, -1.035159
    2241, -0.875295,  4.631628, -1.074014
    2251, -0.877430,  4.648500, -1.112970
    2261, -0.878516,  4.665521, -1.136001
    2271, -0.878587,  4.682795, -1.129939
    2281, -0.878347,  4.700239, -1.095621
    2291, -0.878642,  4.717582, -1.044946
    2301, -0.879832,  4.734450, -0.992098
    2311, -0.881420,  4.750561, -0.945491
    2321, -0.882208,  4.765664, -0.907951
    2331, -0.881041,  4.779669, -0.880614
    2341, -0.877741,  4.792691, -0.862842
    2351, -0.873557,  4.805003, -0.853098
    2361, -0.870708,  4.816960, -0.848967
    2371, -0.871386,  4.828870, -0.847281
    2381, -0.876881,  4.840915, -0.845258
    2391, -0.887115,  4.853007, -0.841905
    2401, -0.900561,  4.864724, -0.836016
    2411, -0.914531,  4.875360, -0.828406
    2421, -0.925952,  4.884062, -0.822035
    2431, -0.932519,  4.890024, -0.820288
    2441, -0.933681,  4.892737, -0.825300
    2451, -0.930660,  4.892125, -0.837245
    2461, -0.925554,  4.888575, -0.855487
    2471, -0.920318,  4.882805, -0.877910
    2481, -0.916171,  4.875679, -0.900056
    2491, -0.913377,  4.867989, -0.916721
    2501, -0.911422,  4.860354, -0.923349
    2511, -0.909457,  4.853184, -0.917087
    2521, -0.906814,  4.846808, -0.899916
    2531, -0.903400,  4.841429, -0.876302
    2541, -0.899783,  4.837176, -0.855120
    2551, -0.896957,  4.834145, -0.842124
    2561, -0.895953,  4.832261, -0.837580
    2571, -0.897497,  4.831343, -0.842431
    2581, -0.901838,  4.831089, -0.857363
    2591, -0.908786,  4.831127, -0.881272
    2601, -0.917606,  4.831077, -0.911849
    2611, -0.927391,  4.830607, -0.946389
    2621, -0.937172,  4.829526, -0.978382
    2631, -0.946184,  4.827855, -1.003713
    2641, -0.953987,  4.825723, -1.019358
    2651, -0.960443,  4.823336, -1.025871
    2661, -0.965629,  4.820957, -1.025846
    2671, -0.969739,  4.818843, -1.022036
    2681, -0.973037,  4.817200, -1.016585
    2691, -0.975846,  4.816174, -1.009920
    2701, -0.978518,  4.815854, -1.001252
    2711, -0.981343,  4.816266, -0.990710
    2721, -0.984424,  4.817371, -0.979041
    2731, -0.987567,  4.819061, -0.967496
    2741, -0.990282,  4.821152, -0.957208
    2751, -0.991923,  4.823433, -0.949031
    2761, -0.991937,  4.825671, -0.943407
    2771, -0.990133,  4.827622, -0.939883
    2781, -0.986828,  4.829132, -0.937621
    2791, -0.982805,  4.830095, -0.935692
    2801, -0.979120,  4.830466, -0.933110
    2811, -0.976850,  4.830245, -0.928781
    2821, -0.976889,  4.829529, -0.922524
    2831, -0.979808,  4.828507, -0.913438
    2841, -0.985787,  4.827438, -0.901524
    2851, -0.994598,  4.826668, -0.887221
    2861, -1.005630,  4.826643, -0.871015
    2871, -1.017963,  4.827903, -0.853558
    2881, -1.030470,  4.831128, -0.835212
    2891, -1.041962,  4.836921, -0.815824
    2901, -1.051365,  4.845666, -0.796411
    2911, -1.057886,  4.857684, -0.777481
    2921, -1.061119,  4.872930, -0.759137
    2931, -1.061054,  4.890591, -0.741998
    2941, -1.057964,  4.910001, -0.725718
    2951, -1.052628,  4.929623, -0.710723
    2961, -1.045708,  4.948402, -0.696789
    2971, -1.038167,  4.965321, -0.684764
    2981, -1.031083,  4.979812, -0.674327
    2991, -1.025388,  4.991553, -0.665225
    3001, -1.022020,  5.000922, -0.657211
    3011, -1.021739,  5.009008, -0.650070
    3021, -1.025093,  5.017813, -0.643693
    3031, -1.032369,  5.029971, -0.637800
    3041, -1.043509,  5.048339, -0.632036
    3051, -1.058024,  5.074489, -0.626050
    3061, -1.074882,  5.107833, -0.619652
    3071, -1.092435,  5.143178, -0.613300
    3081, -1.108491,  5.173821, -0.604038
    3091, -1.120659,  5.203546, -0.592627
    3101, -1.127017,  5.231333, -0.580939
    3111, -1.126837,  5.255809, -0.570116
    3121, -1.120887,  5.276301, -0.560729
    3131, -1.111073,  5.292806, -0.552439
    3141, -1.099716,  5.305934, -0.545034
    3151, -1.088944,  5.316684, -0.538000
    3161, -1.080397,  5.326080, -0.531590
    3171, -1.075189,  5.335274, -0.526440
    3181, -1.073969,  5.345498, -0.522270
    3191, -1.076988,  5.357348, -0.519661
    3201, -1.084134,  5.371422, -0.518045
    3211, -1.094917,  5.387457, -0.517724
    3221, -1.108438,  5.405274, -0.517873
    3231, -1.123359,  5.424259, -0.518388
    3241, -1.137939,  5.443814, -0.518946
    3251, -1.150221,  5.463405, -0.518966
    3261, -1.158443,  5.482590, -0.518138
    3271, -1.161584,  5.500588, -0.516116
    3281, -1.159750,  5.516578, -0.512372
    3291, -1.154142,  5.529882, -0.506555
    3301, -1.146611,  5.540165, -0.499076
    3311, -1.139067,  5.547354, -0.489795
    3321, -1.133041,  5.551460, -0.479601
    3331, -1.129458,  5.553140, -0.469420
    3341, -1.128593,  5.553519, -0.459614
    3351, -1.130128,  5.553878, -0.451397
    3361, -1.133283,  5.555520, -0.445788
    3371, -1.137012,  5.559405, -0.443320
    3381, -1.140262,  5.565738, -0.444370
    3391, -1.142248,  5.574054, -0.448997
    3401, -1.142665,  5.582248, -0.456711
    3411, -1.141744,  5.589603, -0.466139
    3421, -1.140152,  5.595806, -0.476997
    3431, -1.138792,  5.600755, -0.488239
    3441, -1.138586,  5.604437, -0.499414
    3451, -1.140293,  5.606946, -0.509355
    3461, -1.144389,  5.608585, -0.517324
    3471, -1.150971,  5.609538, -0.523203
    3481, -1.159717,  5.610224, -0.526852
    3491, -1.169874,  5.610898, -0.528487
    3501, -1.180343,  5.611768, -0.528427
    3511, -1.189859,  5.612819, -0.527128
    3521, -1.197260,  5.614064, -0.525205
    3531, -1.201742,  5.615438, -0.523146
    3541, -1.203008,  5.616855, -0.521223
    3551, -1.201246,  5.618208, -0.519834
    3561, -1.196997,  5.619357, -0.519235
    3571, -1.190995,  5.620193, -0.519442
    3581, -1.184070,  5.620693, -0.520566
    3591, -1.177078,  5.620717, -0.522591
    3601, -1.170847,  5.620305, -0.525354
    3611, -1.166086,  5.619390, -0.528966
    3621, -1.163295,  5.617999, -0.533232
    3631, -1.162678,  5.616141, -0.537865
    3641, -1.164090,  5.613841, -0.542561
    3651, -1.167061,  5.611069, -0.546753
    3661, -1.170887,  5.607991, -0.550074
    3671, -1.174797,  5.604600, -0.552317
    3681, -1.178165,  5.601027, -0.553191
    3691, -1.180668,  5.597342, -0.552705
    3701, -1.182329,  5.593623, -0.551036
    3711, -1.183425,  5.589967, -0.548751
    3721, -1.184296,  5.586447, -0.546581
    3731, -1.185177,  5.583182, -0.545158
    3741, -1.186096,  5.580306, -0.545034
    3751, -1.186890,  5.578071, -0.546483
    3761, -1.187306,  5.576809, -0.549622
    3771, -1.187134,  5.576708, -0.554360
    3781, -1.186329,  5.577588, -0.560558
    3791, -1.185065,  5.578565, -0.567709
    3801, -1.183701,  5.580103, -0.574350
    3811, -1.182682,  5.581901, -0.580537
    3821, -1.182425,  5.583458, -0.586541
    3831, -1.183205,  5.584298, -0.592185
    3841, -1.185083,  5.584037, -0.596985
    3851, -1.187874,  5.582568, -0.600476
    3861, -1.191156,  5.580025, -0.602205
    3871, -1.194328,  5.576757, -0.601569
    3881, -1.196716,  5.573345, -0.599030
    3891, -1.197723,  5.570360, -0.595425
    3901, -1.196981,  5.568342, -0.591025
    3911, -1.194468,  5.567658, -0.587013
    3921, -1.190528,  5.568482, -0.583947
    3931, -1.185798,  5.570678, -0.582622
    3941, -1.181071,  5.573891, -0.583415
    3951, -1.177158,  5.577425, -0.586567
    3961, -1.174790,  5.580832, -0.592541
    3971, -1.174549,  5.583719, -0.601060
    3981, -1.176820,  5.585633, -0.611548
    3991, -1.181756,  5.586397, -0.622927
    4001, -1.189215,  5.585837, -0.633687
    4011, -1.198691,  5.583844, -0.641786
    4021, -1.209267,  5.580613, -0.644793
    4031, -1.219628,  5.576130, -0.641630
    4041, -1.228189,  5.570538, -0.632410
    4051, -1.233378,  5.564102, -0.619463
    4061, -1.234020,  5.557217, -0.605024
    4071, -1.229673,  5.550352, -0.590311
    4081, -1.220756,  5.543935, -0.577499
    4091, -1.208415,  5.538354, -0.568373
    4101, -1.194222,  5.533965, -0.563478
    4111, -1.179863,  5.530893, -0.563399
    4121, -1.166894,  5.529159, -0.568463
    4131, -1.156595,  5.528631, -0.578670
    4141, -1.149900,  5.529036, -0.594512
    4151, -1.147356,  5.529997, -0.614916
    4161, -1.149117,  5.530970, -0.637611
    4171, -1.154956,  5.531960, -0.659659
    4181, -1.164300,  5.533071, -0.678492
    4191, -1.176290,  5.534347, -0.689385
    4201, -1.189890,  5.535808, -0.690246
    4211, -1.204010,  5.537464, -0.682040
    4221, -1.217637,  5.539282, -0.667999
    4231, -1.229932,  5.541248, -0.650410
    4241, -1.240249,  5.543365, -0.632650
    4251, -1.248128,  5.545638, -0.617223
    4261, -1.253260,  5.548003, -0.605704
    4271, -1.255493,  5.550506, -0.598684
    4281, -1.254844,  5.553235, -0.596243
    4291, -1.251512,  5.556148, -0.598291
    4301, -1.245846,  5.559084, -0.604108
    4311, -1.238291,  5.562089, -0.613135
    4321, -1.229347,  5.565155, -0.624677
    4331, -1.219538,  5.568457, -0.637369
    4341, -1.209425,  5.571949, -0.650019
    4351, -1.199609,  5.575565, -0.661251
    4361, -1.190733,  5.579278, -0.669856
    4371, -1.183440,  5.582912, -0.675739
    4381, -1.178335,  5.586332, -0.678879
    4391, -1.175921,  5.589441, -0.680273
    4401, -1.176565,  5.592129, -0.680620
    4411, -1.180459,  5.594386, -0.680884
    4421, -1.187604,  5.596302, -0.681200
    4431, -1.197791,  5.597972, -0.681922
    4441, -1.210582,  5.599565, -0.683303
    4451, -1.225276,  5.600761, -0.685543
    4461, -1.240871,  5.601536, -0.687860
    4471, -1.256059,  5.602383, -0.689173
    4481, -1.269313,  5.603315, -0.688935
    4491, -1.279082,  5.604268, -0.687002
    4501, -1.284120,  5.605121, -0.683046
    4511, -1.283824,  5.605784, -0.676674
    4521, -1.278430,  5.606228, -0.667781
    4531, -1.268924,  5.606491, -0.656376
    4541, -1.256743,  5.606678, -0.642991
    4551, -1.243422,  5.606921, -0.629014
    4561, -1.230339,  5.607392, -0.615499
    4571, -1.218589,  5.608133, -0.603745
    4581, -1.208963,  5.609192, -0.594989
    4591, -1.201989,  5.610523, -0.590123
    4601, -1.197985,  5.612002, -0.589775
    4611, -1.197121,  5.613451, -0.594061
    4621, -1.199444,  5.614655, -0.603040
    4631, -1.204894,  5.615356, -0.616435
    4641, -1.213285,  5.615407, -0.633526
    4651, -1.224267,  5.614764, -0.653095
    4661, -1.237278,  5.613456, -0.673422
    4671, -1.251491,  5.611580, -0.692175
    4681, -1.265799,  5.609276, -0.707087
    4691, -1.278880,  5.606738, -0.716094
    4701, -1.289369,  5.604091, -0.718406
    4711, -1.296144,  5.601560, -0.714773
    4721, -1.298633,  5.599269, -0.707504
    4731, -1.296997,  5.597331, -0.698793
    4741, -1.292076,  5.595792, -0.690490
    4751, -1.285135,  5.594614, -0.684033
    4761, -1.277535,  5.593797, -0.680262
    4771, -1.270458,  5.593236, -0.679758
    4781, -1.264753,  5.592838, -0.682528
    4791, -1.260881,  5.592495, -0.687913
    4801, -1.258936,  5.592064, -0.695118
    4811, -1.258716,  5.591478, -0.702986
    4821, -1.259832,  5.590682, -0.710030
    4831, -1.261841,  5.589641, -0.715411
    4841, -1.264383,  5.588415, -0.718909
    4851, -1.267278,  5.586953, -0.720892
    4861, -1.270561,  5.585315, -0.722064
    4871, -1.274423,  5.583585, -0.723134
    4881, -1.279092,  5.581943, -0.725017
    4891, -1.284687,  5.580374, -0.728337
    4901, -1.291085,  5.578949, -0.733213
    4911, -1.297869,  5.577596, -0.739296
    4921, -1.304352,  5.576345, -0.746013
    4931, -1.309736,  5.575121, -0.752512
    4941, -1.313346,  5.573937, -0.758001
    4951, -1.314892,  5.572771, -0.762016
    4961, -1.314609,  5.571646, -0.764450
    4971, -1.313227,  5.570572, -0.765815
    4981, -1.311758,  5.569570, -0.767100
    4991, -1.311241,  5.568644, -0.768567
    5001, -1.312508,  5.567618, -0.770841
    5011, -1.316048,  5.566474, -0.774188
    5021, -1.321938,  5.565215, -0.778754
    5031, -1.329820,  5.563937, -0.784270
    5041, -1.338924,  5.562694, -0.790185
    5051, -1.348140,  5.561545, -0.795917
    5061, -1.356161,  5.560511, -0.800645
    5071, -1.361739,  5.559605, -0.803932
    5081, -1.363984,  5.558761, -0.805555
    5091, -1.362635,  5.557940, -0.805531
    5101, -1.358138,  5.557076, -0.804257
    5111, -1.351500,  5.556138, -0.802177
    5121, -1.344002,  5.555061, -0.799734
    5131, -1.336898,  5.553837, -0.797192
    5141, -1.331213,  5.552454, -0.794888
    5151, -1.327635,  5.550924, -0.793146
    5161, -1.326497,  5.549314, -0.792196
    5171, -1.327795,  5.547677, -0.792072
    5181, -1.331231,  5.546104, -0.792734
    5191, -1.336267,  5.544688, -0.794027
    5201, -1.342206,  5.543488, -0.795646
    5211, -1.348294,  5.542460, -0.796676
    5221, -1.353845,  5.541632, -0.797231
    5231, -1.358364,  5.540927, -0.797202
    5241, -1.361625,  5.540235, -0.796406
    5251, -1.363702,  5.539480, -0.794901
    5261, -1.364909,  5.538578, -0.792622
    5271, -1.365709,  5.537651, -0.789445
    5281, -1.366601,  5.536860, -0.785319
    5291, -1.368029,  5.536468, -0.780458
    5301, -1.370314,  5.536664, -0.774585
    5311, -1.373609,  5.537479, -0.768039
    5321, -1.377873,  5.538826, -0.761238
    5331, -1.382849,  5.541067, -0.754209
    5341, -1.388054,  5.544222, -0.747864
    5351, -1.392810,  5.547981, -0.742082
    5361, -1.396319,  5.552082, -0.737493
    5371, -1.397814,  5.556297, -0.735287
    5381, -1.396748,  5.560296, -0.734490
    5391, -1.392973,  5.563957, -0.734518
    5401, -1.386806,  5.567325, -0.736006
    5411, -1.378969,  5.570438, -0.738315
    5421, -1.370406,  5.573458, -0.740046
    5431, -1.362086,  5.576452, -0.742387
    5441, -1.354843,  5.579682, -0.744504
    5451, -1.349293,  5.583017, -0.747154
    5461, -1.345819,  5.586664, -0.749643
    5471, -1.344596,  5.590515, -0.752842
    5481, -1.345650,  5.594749, -0.755829
    5491, -1.348909,  5.599140, -0.759076
    5501, -1.354254,  5.603717, -0.761718
    5511, -1.361551,  5.608204, -0.763355
    5521, -1.370647,  5.612296, -0.763315
    5531, -1.381337,  5.615964, -0.761255
    5541, -1.393300,  5.619038, -0.758348
    5551, -1.406009,  5.621537, -0.755478
    5561, -1.418665,  5.623526, -0.753395
    5571, -1.430185,  5.625164, -0.752614
    5581, -1.439321,  5.626725, -0.753312
    5591, -1.444921,  5.628558, -0.755301
    5601, -1.446278,  5.631039, -0.758356
    5611, -1.443410,  5.634444, -0.762033
    5621, -1.437078,  5.638744, -0.766273
    5631, -1.428544,  5.642106, -0.773680
    5641, -1.419204,  5.644620, -0.778461
    5651, -1.410275,  5.647788, -0.779048
    5661, -1.402620,  5.651341, -0.777032
    5671, -1.396721,  5.654905, -0.773839
    5681, -1.392724,  5.658118, -0.770533
    5691, -1.390531,  5.660707, -0.767838
    5701, -1.389902,  5.662532, -0.766158
    5711, -1.390552,  5.663582, -0.765631
    5721, -1.392218,  5.663983, -0.766174
    5731, -1.394704,  5.663865, -0.767510
    5741, -1.397880,  5.663374, -0.769080
    5751, -1.401665,  5.662762, -0.770386
    5761, -1.405979,  5.662274, -0.770912
    5771, -1.410706,  5.662091, -0.770285
    5781, -1.415674,  5.662374, -0.768318
    5791, -1.420663,  5.663130, -0.764845
    5801, -1.425435,  5.664427, -0.760157
    5811, -1.429790,  5.666110, -0.754564
    5821, -1.433609,  5.668164, -0.748702
    5831, -1.436870,  5.670381, -0.743031
    5841, -1.439629,  5.672688, -0.738163
    5851, -1.441970,  5.674910, -0.734454
    5861, -1.443934,  5.676975, -0.732319
    5871, -1.445466,  5.678774, -0.731988
    5881, -1.446402,  5.680221, -0.733195
    5891, -1.446495,  5.681304, -0.735949
    5901, -1.445498,  5.681955, -0.740046
    5911, -1.443264,  5.682204, -0.745128
    5921, -1.439829,  5.682062, -0.750819
    5931, -1.435452,  5.681548, -0.756527
    5941, -1.430597,  5.680733, -0.761689
    5951, -1.425857,  5.679616, -0.765764
    5961, -1.421862,  5.678279, -0.768298
    5971, -1.419185,  5.676748, -0.769009
    5981, -1.418276,  5.675072, -0.767828
    5991, -1.419405,  5.673314, -0.765045
    6001, -1.422637,  5.671501, -0.761084
    6011, -1.427816,  5.669666, -0.756481
    6021, -1.434562,  5.667862, -0.751786
    6031, -1.442305,  5.666068, -0.747533
    6041, -1.450340,  5.664298, -0.743771
    6051, -1.457930,  5.662535, -0.741215
    6061, -1.464435,  5.660764, -0.739907
    6071, -1.469431,  5.658936, -0.739993
    6081, -1.472779,  5.657035, -0.741396
    6091, -1.474608,  5.654994, -0.744031
    6101, -1.475219,  5.652779, -0.747687
    6111, -1.474946,  5.650384, -0.752200
    6121, -1.474041,  5.647764, -0.757202
    6131, -1.472610,  5.644916, -0.762166
    6141, -1.470617,  5.641875, -0.766466
    6151, -1.467965,  5.638610, -0.769458
    6161, -1.464592,  5.635170, -0.770466
    6171, -1.460571,  5.631594, -0.768992
    6181, -1.456169,  5.627916, -0.764851
    6191, -1.451826,  5.624212, -0.758144
    6201, -1.448087,  5.620532, -0.749323
    6211, -1.445511,  5.616896, -0.739383
    6221, -1.444565,  5.613400, -0.729135
    6231, -1.445552,  5.610090, -0.719331
    6241, -1.448567,  5.606913, -0.710856
    6251, -1.453481,  5.603901, -0.704250
    6261, -1.459947,  5.601035, -0.700011
    6271, -1.467440,  5.598255, -0.698430
    6281, -1.475316,  5.595487, -0.699556
    6291, -1.482902,  5.592702, -0.703474
    6301, -1.489601,  5.589842, -0.709411
    6311, -1.494988,  5.586822, -0.716663
    6321, -1.498862,  5.583621, -0.724437
    6331, -1.501248,  5.580253, -0.731721
    6341, -1.502338,  5.576755, -0.737439
    6351, -1.502393,  5.573210, -0.740703
    6361, -1.501647,  5.569741, -0.740976
    6371, -1.500249,  5.566515, -0.738550
    6381, -1.498243,  5.563616, -0.733838
    6391, -1.495593,  5.561171, -0.727658
    6401, -1.492254,  5.559272, -0.721132
    6411, -1.488241,  5.557921, -0.715472
    6421, -1.483696,  5.557143, -0.711631
    6431, -1.478905,  5.556848, -0.710061
    6441, -1.474285,  5.556843, -0.711482
    6451, -1.470332,  5.557059, -0.715538
    6461, -1.467552,  5.557277, -0.722271
    6471, -1.466405,  5.557336, -0.731101
    6481, -1.467251,  5.557163, -0.741159
    6491, -1.470320,  5.556676, -0.751497
    6501, -1.475692,  5.556023, -0.760601
    6511, -1.483269,  5.555194, -0.767632
    6521, -1.492761,  5.554443, -0.771675
    6531, -1.503660,  5.553800, -0.772356
    6541, -1.515224,  5.553427, -0.769934
    6551, -1.526488,  5.553381, -0.765241
    6561, -1.536328,  5.553617, -0.759284
    6571, -1.543601,  5.554165, -0.753550
    6581, -1.547365,  5.554893, -0.749266
    6591, -1.547119,  5.555824, -0.747672
    6601, -1.542959,  5.556914, -0.749362
    6611, -1.535579,  5.558145, -0.754112
    6621, -1.526096,  5.559627, -0.761545
    6631, -1.515812,  5.561415, -0.771049
    6641, -1.505980,  5.563524, -0.781853
    6651, -1.497667,  5.565559, -0.793375
    6661, -1.491681,  5.567438, -0.804504
    6671, -1.488561,  5.569547, -0.813644
    6681, -1.488586,  5.572094, -0.819722
    6691, -1.491787,  5.575032, -0.822758
    6701, -1.497953,  5.578180, -0.823795
    6711, -1.506623,  5.581317, -0.823667
    6721, -1.517089,  5.584224, -0.823385
    6731, -1.528404,  5.586772, -0.824230
    6741, -1.539438,  5.588816, -0.826322
    6751, -1.548998,  5.590320, -0.829539
    6761, -1.556020,  5.591348, -0.833400
    6771, -1.559786,  5.591986, -0.837799
    6781, -1.560111,  5.592389, -0.842926
    6791, -1.557384,  5.592476, -0.847816
    6801, -1.552460,  5.592326, -0.851258
    6811, -1.546459,  5.592188, -0.853991
    6821, -1.540535,  5.592339, -0.855947
    6831, -1.535712,  5.593043, -0.856701
    6841, -1.532766,  5.594318, -0.857380
    6851, -1.532172,  5.596282, -0.857454
    6861, -1.534066,  5.598757, -0.857464
    6871, -1.538222,  5.601644, -0.857025
    6881, -1.544036,  5.604604, -0.855949
    6891, -1.550547,  5.607529, -0.854403
    6901, -1.556530,  5.610084, -0.852337
    6911, -1.560692,  5.612245, -0.850063
    6921, -1.561987,  5.613834, -0.847806
    6931, -1.559908,  5.614869, -0.845607
    6941, -1.554673,  5.615434, -0.843501
    6951, -1.547173,  5.615675, -0.841410
    6961, -1.538718,  5.615802, -0.839415
    6971, -1.530724,  5.616083, -0.837885
    6981, -1.524463,  5.616715, -0.836653
    6991, -1.520937,  5.617810, -0.835952
    7001, -1.520836,  5.618668, -0.837624
    7011, -1.524527,  5.618915, -0.840713
    7021, -1.532077,  5.619644, -0.842882
    7031, -1.543248,  5.620769, -0.844612
    7041, -1.557458,  5.622125, -0.846193
    7051, -1.573734,  5.623526, -0.847619
    7061, -1.590659,  5.624803, -0.848783
    7071, -1.606408,  5.625802, -0.849278
    7081, -1.618935,  5.626461, -0.848548
    7091, -1.626390,  5.626778, -0.846401
    7101, -1.627662,  5.626821, -0.842688
    7111, -1.622779,  5.626608, -0.837611