 variables = x,y,s,cf
 zone t="Cf_jmin_000"
   9.9995051902727727E-01  -7.1909065776623117E-06   5.0000757984215544E-05  -5.2726504580862617E-05
   9.9984842521016382E-01  -2.2027864313643173E-05   1.5316704515039908E-04  -4.4804151751765118E-05
   9.9973986967570450E-01  -3.7800653593172338E-05   2.6286246416598694E-04  -3.8256128052096258E-05
   9.9962444470307399E-01  -5.4566217632466070E-05   3.7949868687742015E-04  -3.2774049769929641E-05
   9.9950171782215136E-01  -7.2390284129133581E-05   5.0351314025877023E-04  -2.8124116562306062E-05
   9.9937122937306111E-01  -9.1341591097489930E-05   6.3537059124955573E-04  -2.4289879060440038E-05
   9.9923249069640840E-01  -1.1149110829966217E-04   7.7556482594850682E-04  -2.1197777863143012E-05
   9.9908498259717093E-01  -1.3291383195853897E-04   9.2462042775457614E-04  -1.8900183681081008E-05
   9.9892815152088499E-01  -1.5567554722222389E-04   1.0830946602552200E-03  -1.7333762932017104E-05
   9.9876141159995435E-01  -1.7986080158319392E-04   1.2515794600457641E-03  -1.6457356789183886E-05
   9.9858414257704131E-01  -2.0557327874851444E-04   1.4307035454349743E-03  -1.6053520300287040E-05
   9.9839568363658260E-01  -2.3290882854460092E-04   1.6211346472053397E-03  -1.5893925762086411E-05
   9.9819533302030616E-01  -2.6196923944667670E-04   1.8235818673002192E-03  -1.5812350777150365E-05
   9.9798234555986298E-01  -2.9286259646499769E-04   2.0387981720122396E-03  -1.5808758022070963E-05
   9.9775592727618023E-01  -3.2568438029715078E-04   2.2675830251750947E-03  -1.5844447305203517E-05
   9.9751523611785675E-01  -3.6054196189736485E-04   2.5107851733125897E-03  -1.5913675063148669E-05
   9.9725938293851901E-01  -3.9758182478669569E-04   2.7693055802828900E-03  -1.5995707046684677E-05
   9.9698742313174693E-01  -4.3695344401111782E-04   3.0441005236495049E-03  -1.6095383048147127E-05
   9.9669835230645731E-01  -4.7880222526036219E-04   3.3361848651087267E-03  -1.6204151670616959E-05
   9.9639110468507097E-01  -5.2328246114673833E-04   3.6466354927970476E-03  -1.6319281418746295E-05
   9.9606454531048905E-01  -5.7052877570171732E-04   3.9765949451217066E-03  -1.6444370387215988E-05
   9.9571746954508467E-01  -6.2067933343002107E-04   4.3272752360706494E-03  -1.6569038973665834E-05
   9.9534860877415099E-01  -6.7394334049376229E-04   4.6999618641944295E-03  -1.6687633249501167E-05
   9.9495661837215832E-01  -7.3054729837141970E-04   5.0960180259970083E-03  -1.6801423651602349E-05
   9.9454006784358939E-01  -7.9069777260028554E-04   5.5168890542241951E-03  -1.6913828920613023E-05
   9.9409744080292428E-01  -8.5461373135323096E-04   5.9641070624833247E-03  -1.7018979175134358E-05
   9.9362711529951342E-01  -9.2242420875246218E-04   6.4392958146677814E-03  -1.7134353415337613E-05
   9.9312738668468059E-01  -9.9436264859376305E-04   6.9441758277840769E-03  -1.7228840340729380E-05
   9.9259646488556541E-01  -1.0707853631115934E-03   7.4805697017889666E-03  -1.7319777528608499E-05
   9.9203244015944692E-01  -1.1519730270895614E-03   8.0504076861803563E-03  -1.7401766104212019E-05
   9.9143328891679028E-01  -1.2382117538317881E-03   8.6557334906788574E-03  -1.7481358474303492E-05
   9.9079684556383585E-01  -1.3296396250478488E-03   9.2987103369670289E-03  -1.7565172921327931E-05
   9.9012084359839947E-01  -1.4265769581210878E-03   9.9816272453952803E-03  -1.7632505791446723E-05
   9.8940290916139606E-01  -1.5295273239526834E-03   1.0706905560016819E-02  -1.7691536529529437E-05
   9.8864050774515388E-01  -1.6388541658858724E-03   1.1477105714428100E-02  -1.7748550333477462E-05
   9.8783093617072748E-01  -1.7547734188418985E-03   1.2294934201660947E-02  -1.7807456648182115E-05
   9.8697134852176116E-01  -1.8775856473539757E-03   1.3163250836536291E-02  -1.7860060120185501E-05
   9.8605877654983587E-01  -2.0078709962427642E-03   1.4085076132391579E-02  -1.7900939290105989E-05
   9.8509007627055212E-01  -2.1461696266388743E-03   1.5063598867055349E-02  -1.7941158047072855E-05
   9.8406187878268381E-01  -2.2926916109111085E-03   1.6102183882206984E-02  -1.7986251675399881E-05
   9.8297065269872141E-01  -2.4478110328500259E-03   1.7204380059519089E-02  -1.8024448659111394E-05
   9.8181272909372463E-01  -2.6122981163712788E-03   1.8373928295229814E-02  -1.8053825814573433E-05
   9.8058421032823651E-01  -2.7867360624343200E-03   1.9614769525896393E-02  -1.8086345443039661E-05
   9.7928092518838805E-01  -2.9712622021794656E-03   2.0931053021025582E-02  -1.8125189185935567E-05
   9.7789855771922696E-01  -3.1665348087289782E-03   2.2327144425863924E-02  -1.8152534448083461E-05
   9.7643262197956437E-01  -3.3736122315590434E-03   2.3807633754385417E-02  -1.8177428899311299E-05
   9.7487825580710519E-01  -3.5925496959141683E-03   2.5377343339086415E-02  -1.8217748291372756E-05
   9.7323043182456970E-01  -3.8239502619512745E-03   2.7041335557762582E-02  -1.8243676560665965E-05
   9.7148397362975725E-01  -4.0691326131477353E-03   2.8804920149316328E-02  -1.8271140027630426E-05
   9.6963326613477419E-01  -4.3281187653409544E-03   3.0673661088849547E-02  -1.8311231444858926E-05
   9.6767252440183071E-01  -4.6015989419769324E-03   3.2653383179245647E-02  -1.8341340098132700E-05
   9.6559579770643578E-01  -4.8910006310627363E-03   3.4750177669916060E-02  -1.8373061343665280E-05
   9.6339666194677009E-01  -5.1963220234757350E-03   3.6970407407535155E-02  -1.8417531914984569E-05
   9.6106855821398784E-01  -5.5185937572454231E-03   3.9320710805180140E-02  -1.8450107246761413E-05
   9.5860464518173427E-01  -5.8588309423315945E-03   4.1808004398202196E-02  -1.8495510025265797E-05
   9.5599771037082881E-01  -6.2174138403255181E-03   4.4439485179876483E-02  -1.8538077382676280E-05
   9.5324040357318818E-01  -6.5957718359549566E-03   4.7222630101665553E-02  -1.8582327267161778E-05
   9.5032492907531219E-01  -6.9941334350522221E-03   5.0165194499014368E-02  -1.8635568078999721E-05
   9.4724336382402607E-01  -7.4138280309334476E-03   5.3275208639134305E-02  -1.8681751774995144E-05
   9.4398740124301728E-01  -7.8553484864108333E-03   5.6560971273611940E-02  -1.8742390446124469E-05
   9.4054853263862948E-01  -8.3196459471018350E-03   6.0031041794445225E-02  -1.8794172602504534E-05
   9.3691801207220626E-01  -8.8077583072223055E-03   6.3694228499662386E-02  -1.8858085702821662E-05
   9.3308682065970949E-01  -9.3204701209434540E-03   6.7559574694665780E-02  -1.8916491552228110E-05
   9.2904572943450536E-01  -9.8586105353677782E-03   7.1636340333981099E-02  -1.8984734925220198E-05
   9.2478533522913520E-01  -1.0423193424308867E-02   7.5933980718687885E-02  -1.9047867346705707E-05
   9.2029600150685487E-01  -1.1014739431380698E-02   8.0462120685038857E-02  -1.9121086972326871E-05
   9.1556801705754620E-01  -1.1634282618375572E-02   8.5230524091195345E-02  -1.9187919151124405E-05
   9.1059151890482604E-01  -1.2282477980534742E-02   9.0249059871393908E-02  -1.9264458819027782E-05
   9.0535653904386193E-01  -1.2959684392990400E-02   9.5527660476592946E-02  -1.9335851256260093E-05
   8.9985325963722151E-01  -1.3667549164914861E-02   1.0107627865015424E-01  -1.9411747190684678E-05
   8.9407161262541990E-01  -1.4405531402230651E-02   1.0690483492648069E-01  -1.9488516791566393E-05
   8.8800192614457751E-01  -1.5175481302653055E-02   1.1302316148959604E-01  -1.9562761223691601E-05
   8.8163435480710239E-01  -1.5976669733637067E-02   1.1944094059372788E-01  -1.9643239998776540E-05
   8.7495936182557699E-01  -1.6809042484814681E-02   1.2616763241881490E-01  -1.9718041365557030E-05
   8.6796804899133673E-01  -1.7675276458616961E-02   1.3321240522562136E-01  -1.9794124348292233E-05
   8.6065127870935365E-01  -1.8573066091990970E-02   1.4058405273329047E-01  -1.9872830937271022E-05
   8.5300064073653492E-01  -1.9502197206768400E-02   1.4829090414890345E-01  -1.9946756362460387E-05
   8.4500860511786358E-01  -2.0465101454242369E-02   1.5634073850421770E-01  -2.0020352215341702E-05
   8.3666779025226334E-01  -2.1460042706929749E-02   1.6474068698092115E-01  -2.0094742593272001E-05
   8.2797158301726159E-01  -2.2485315465836236E-02   1.7349712687722094E-01  -2.0166249499170134E-05
   8.1891452077159699E-01  -2.3541628893689121E-02   1.8261558082223769E-01  -2.0235559686835071E-05
   8.0949204939479058E-01  -2.4629211016980738E-02   1.9210061298855524E-01  -2.0303367733254802E-05
   7.9970045525961075E-01  -2.5746228843374734E-02   2.0195571797430106E-01  -2.0370294976854313E-05
   7.8953710172314728E-01  -2.6889798923172253E-02   2.1218320928401249E-01  -2.0434593879517044E-05
   7.7900088484734009E-01  -2.8059100639782644E-02   2.2278411432277820E-01  -2.0495776909480918E-05
   7.6809216611016051E-01  -2.9253919212765728E-02   2.3375807443544502E-01  -2.0554918289472572E-05
   7.5681260559083685E-01  -3.0472251736739328E-02   2.4510324499892525E-01  -2.0612150217039388E-05
   7.4516543143664027E-01  -3.1711850384877886E-02   2.5681620185248649E-01  -2.0666965167881850E-05
   7.3315551708181870E-01  -3.2970154361391057E-02   2.6889185812431809E-01  -2.0719865903307538E-05
   7.2078931313865735E-01  -3.4242883177513075E-02   2.8132339023159658E-01  -2.0769752049726717E-05
   7.0807522867991934E-01  -3.5527158185102610E-02   2.9410217881972389E-01  -2.0816435293129360E-05
   6.9502365180742065E-01  -3.6821326249752588E-02   3.0721776805121026E-01  -2.0860744192282193E-05
   6.8164666406757779E-01  -3.8121906659227794E-02   3.2065783810115328E-01  -2.0902586877106232E-05
   6.6795821694458035E-01  -3.9425180537489099E-02   3.3440819460803034E-01  -2.0941816553479585E-05
   6.5397412249564635E-01  -4.0727200852391038E-02   3.4845277997032048E-01  -2.0978488494940060E-05
   6.3971202297730489E-01  -4.2023805690999595E-02   3.6277370593112218E-01  -2.1012442648941259E-05
   6.2519133864140763E-01  -4.3310635115666525E-02   3.7735130829379276E-01  -2.1043693361288830E-05
   6.1043319327641732E-01  -4.4583151862733483E-02   3.9216422420601549E-01  -2.1072188152596528E-05
   5.9546031750629125E-01  -4.5836666073508850E-02   4.0718949200142257E-01  -2.1097720223933818E-05
   5.8029693032436325E-01  -4.7066364154969870E-02   4.2240267310882718E-01  -2.1120349623613072E-05
   5.6496859981930714E-01  -4.8267341757695363E-02   4.3777799504338105E-01  -2.1139969424380545E-05
   5.4950208452917337E-01  -4.9434640734215871E-02   4.5328851399752096E-01  -2.1156421255146856E-05
   5.3392515732131696E-01  -5.0563289806742823E-02   4.6890629506945847E-01  -2.1169451252843035E-05
   5.1826641412425223E-01  -5.1648348534482219E-02   4.8460260772059727E-01  -2.1178786316871230E-05
   5.0255507021614865E-01  -5.2684954033488773E-02   5.0034813365754804E-01  -2.1184027232280046E-05
   4.8682074708935874E-01  -5.3668369772674515E-02   5.1611318400482886E-01  -2.1184783287799543E-05
   4.7109325314879269E-01  -5.4594035654575643E-02   5.3186792238417657E-01  -2.1180528957981356E-05
   4.5540236165477921E-01  -5.5457618494895722E-02   5.4758259035593571E-01  -2.1170765220664116E-05
   4.3977758938236233E-01  -5.6255061946096342E-02   5.6322773161396222E-01  -2.1154859545032167E-05
   4.2424797943661430E-01  -5.6982634871827184E-02   5.7877441136064944E-01  -2.1132216965551194E-05
   4.0884189153917760E-01  -5.7636977173961511E-02   5.9419442742169992E-01  -2.1102119028740564E-05
   3.9358680289028081E-01  -5.8215142104202311E-02   6.0946050988573663E-01  -2.1063890371723617E-05
   3.7850912242167889E-01  -5.8714634157915183E-02   6.2454650636267728E-01  -2.1016750616416713E-05
   3.6363402090093067E-01  -5.9133441747794308E-02   6.3942755033467391E-01  -2.0959963347864778E-05
   3.4898527893985454E-01  -5.9470063986553232E-02   6.5408021050960519E-01  -2.0892713629450373E-05
   3.3458515451492354E-01  -5.9723531067212100E-02   6.6848261956316324E-01  -2.0814226323100693E-05
   3.2045427114026992E-01  -5.9893417911936211E-02   6.8261458115437301E-01  -2.0723681468221749E-05
   3.0661152736000585E-01  -5.9979850960328818E-02   6.9645765460390230E-01  -2.0620282773654395E-05
   2.9307402775970981E-01  -5.9983508179855594E-02   7.0999521711880698E-01  -2.0503229747810911E-05
   2.7985705015058837E-01  -5.9904449545950200E-02   7.2321249966039991E-01  -2.0370425319015063E-05
   2.6697407153294628E-01  -5.9741159346480874E-02   7.3609659104430658E-01  -2.0218436841891692E-05
   2.5443668776542105E-01  -5.9496192359581104E-02   7.4863643958115045E-01  -2.0052045525510970E-05
   2.4225459041835196E-01  -5.9174620214531751E-02   7.6082285399703042E-01  -1.9868707829908574E-05
   2.3043565734658078E-01  -5.8779501742304723E-02   7.7264846462989700E-01  -1.9667626386891849E-05
   2.1898598151327053E-01  -5.8314327835849972E-02   7.8410766164951862E-01  -1.9448392198265127E-05
   2.0790992703370370E-01  -5.7782990834098699E-02   7.9519652925162465E-01  -1.9210551948498293E-05
   1.9721019576465082E-01  -5.7189754056558767E-02   8.0591276919680199E-01  -1.8953763447163411E-05
   1.8688809712888732E-01  -5.6536532695902600E-02   8.1625560172840239E-01  -1.8673479982522968E-05
   1.7694404877313663E-01  -5.5819153919153319E-02   8.2622560622416985E-01  -1.8358857275193795E-05
   1.6737645019007086E-01  -5.5043934444496137E-02   8.3582463849198307E-01  -1.8035486391074799E-05
   1.5818183953778786E-01  -5.4223735604437592E-02   8.4505583572151555E-01  -1.7692909713180084E-05
   1.4935600884502021E-01  -5.3364027754368680E-02   8.5392351207009842E-01  -1.7331824381887547E-05
   1.4089453179239675E-01  -5.2462704339452007E-02   8.6243296382826873E-01  -1.6934016883743939E-05
   1.3279257259813593E-01  -5.1515270997806201E-02   8.7059024635857940E-01  -1.6506713311651954E-05
   1.2504264852972224E-01  -5.0533484382693977E-02   8.7840218166938810E-01  -1.6079214915944571E-05
   1.1763587453650326E-01  -4.9531759955526507E-02   8.8587645212704369E-01  -1.5638138614318386E-05
   1.1056612021950429E-01  -4.8499578339150876E-02   8.9302130633306143E-01  -1.5131985406397498E-05
   1.0382571031391696E-01  -4.7435593071913362E-02   8.9984526474207749E-01  -1.4630731708347318E-05
   9.7403022463561806E-02  -4.6360464483588923E-02   9.0635737305630837E-01  -1.4134837010146152E-05
   9.1289935157944702E-02  -4.5269598835283198E-02   9.1256716520472980E-01  -1.3572130700175199E-05
   8.5478682657216587E-02  -4.4156625632513366E-02   9.1848414275062096E-01  -1.3003059332436075E-05
   7.9956199326948529E-02  -4.3041744037571820E-02   9.2411808209947566E-01  -1.2468088946600419E-05
   7.4715057843566690E-02  -4.1915652166143264E-02   9.2947903202950199E-01  -1.1816426606638135E-05
   6.9746322519422366E-02  -4.0776460304342475E-02   9.3457675153918929E-01  -1.1228576357536124E-05
   6.5036038626778092E-02  -3.9644246870985576E-02   9.3942127352636973E-01  -1.0624156716171243E-05
   6.0578561078120763E-02  -3.8503774173361219E-02   9.4402253045634510E-01  -9.9219922685775074E-06
   5.6360807675095881E-02  -3.7369144046535643E-02   9.4839025272427091E-01  -9.3577286216406599E-06
   5.2375882586846334E-02  -3.6233161246969910E-02   9.5253424017347821E-01  -8.5681660859224537E-06
   4.8614105539947272E-02  -3.5097227371018155E-02   9.5646380299889988E-01  -7.9846553767951410E-06
   4.5064197640926618E-02  -3.3970806083240164E-02   9.6018836638529426E-01  -7.2079485623510018E-06
   4.1718749509250586E-02  -3.2848838624071869E-02   9.6371698591930555E-01  -6.5687435643981016E-06
   3.8567908514862470E-02  -3.1736509253952563E-02   9.6705860095838292E-01  -5.7885872577214990E-06
   3.5603465162729386E-02  -3.0633036567808237E-02   9.7022181686396947E-01  -5.1179769360373950E-06
   3.2817577520565910E-02  -2.9538982243979606E-02   9.7321504641899470E-01  -4.3053590831049688E-06
   3.0200586923345263E-02  -2.8458358833915273E-02   9.7604640650979524E-01  -3.6550561806700058E-06
   2.7747462452353600E-02  -2.7386646977646124E-02   9.7872373498192644E-01  -2.7486068527424677E-06
   2.5446074442345257E-02  -2.6333303839489546E-02   9.8125472962813276E-01  -2.1977583978817868E-06
   2.3295350491638445E-02  -2.5288154015231448E-02   9.8364653937984947E-01  -1.1062694056313584E-06
   2.1285925135968942E-02  -2.4254466339461767E-02   9.8590625185515379E-01  -6.0725379353861532E-07
   1.9408747439893625E-02  -2.3240540438587892E-02   9.8804021393222641E-01   4.5135762291146980E-07
   1.7663358912445970E-02  -2.2233831741140624E-02   9.9005516608510713E-01   1.1263293371489293E-06
   1.6031768369428767E-02  -2.1256497732597898E-02   9.9195716914289433E-01   1.8803985882743986E-06
   1.4522438759381640E-02  -2.0285628638361641E-02   9.9375224357052627E-01   2.9856928209969924E-06
   1.3119162830176667E-02  -1.9336355968399319E-02   9.9544644011621508E-01   3.4536778501571788E-06
   1.1819523868368709E-02  -1.8407816325225458E-02   9.9704425820144049E-01   4.6665064604143883E-06
   1.0628067828227006E-02  -1.7485132334924935E-02   9.9855131726026913E-01   5.4537809267584128E-06
   9.5146498374804045E-03  -1.6601126499920023E-02   9.9997299441716558E-01   5.9035310257911420E-06
   8.4990293811829654E-03  -1.5728327215282098E-02   1.0013131963259916E+00   7.4891947577100768E-06
   7.5799916350202112E-03  -1.4861383878364611E-02   1.0025766300827639E+00   8.0741262513782290E-06
   6.7179372800300063E-03  -1.4039368227466979E-02   1.0037677839104779E+00   8.5030198962805186E-06
   5.9403543649392265E-03  -1.3231828961561023E-02   1.0048899193358694E+00   1.0180303997350931E-05
   5.2498094971876741E-03  -1.2431134500848815E-02   1.0059473082138179E+00   1.0872508101706604E-05
   4.6065053490933483E-03  -1.1669813360973794E-02   1.0069440278860309E+00   1.1280388398648301E-05
   4.0190847604690827E-03  -1.0938761176696388E-02   1.0078821486520058E+00   1.2408229658769843E-05
   3.5105125398616766E-03  -1.0216917140030413E-02   1.0087657934806997E+00   1.3868346583203036E-05
   3.0576340820644976E-03  -9.5176375152661377E-03   1.0095989146550479E+00   1.4253298915550092E-05
   2.6311174577702268E-03  -8.8590626154070422E-03   1.0103835402533583E+00   1.4630193317731971E-05
   2.2512751718545276E-03  -8.2269301144446208E-03   1.0111214613002315E+00   1.5982870750280575E-05
   1.9382797883745750E-03  -7.6072230079859086E-03   1.0118162447098027E+00   1.7422467061318962E-05
   1.6664442566330928E-03  -7.0112162432018638E-03   1.0124713161715422E+00   1.7773798725720865E-05
   1.4105207066344994E-03  -6.4500969292934380E-03   1.0130880428110551E+00   1.8117104021706619E-05
   1.1695956130528540E-03  -5.9218621372447745E-03   1.0136686260490564E+00   1.8453864507343788E-05
   9.7141395564348532E-04  -5.4143134950890657E-03   1.0142143945852038E+00   2.0393466728316618E-05
   8.2505858256176623E-04  -4.9220977095730178E-03   1.0147280644016183E+00   2.1393872643028256E-05
   6.9888654562721975E-04  -4.4546486526725586E-03   1.0152122420587870E+00   2.1701250960812608E-05
   5.8013924035482667E-04  -4.0147071473464850E-03   1.0156679277515819E+00   2.2002328200338624E-05
   4.6838588101816292E-04  -3.6006771950957608E-03   1.0160967745945035E+00   2.2298017137318134E-05
   3.6321996968891046E-04  -3.2110527801833062E-03   1.0165003424990766E+00   2.2588737699725414E-05
   2.7431330569505086E-04  -2.8426239949835264E-03   1.0168794923639715E+00   2.3643713610932614E-05
   2.2107495539358535E-04  -2.4905329468163594E-03   1.0172362230426686E+00   2.5563494143819022E-05
   1.9134590071856472E-04  -2.1556185282471775E-03   1.0175724543387394E+00   2.5819453102495825E-05
   1.6337423787959882E-04  -1.8405021110417508E-03   1.0178888097880592E+00   2.6073885064614082E-05
   1.3705708341593681E-04  -1.5440246555038012E-03   1.0181864529876476E+00   2.6324538562087404E-05
   1.1229746129604035E-04  -1.2650936724328209E-03   1.0184664807223536E+00   2.6573012332941388E-05
   8.9003977123525146E-05  -1.0026795528661294E-03   1.0187299266495433E+00   2.6819580829408809E-05
   6.7090508741318722E-05  -7.5581208256482652E-04   1.0189777647983209E+00   2.7064511036964780E-05
   4.6475912598431535E-05  -5.2357713407115956E-04   1.0192109128904769E+00   2.7308700725063620E-05
   2.7083745242850732E-05  -3.0511352916692304E-04   1.0194302354903668E+00   2.7551482940158378E-05
   8.8419993072852421E-06  -9.9610064610392696E-05   1.0196365469908693E+00   2.7795242695537225E-05
   8.8419993072852421E-06   9.9610064610281809E-05   1.0198365504500735E+00   3.0303732153726878E-05
   2.7083745242850732E-05   3.0511352916670978E-04   1.0200428619505759E+00   3.0516965970699422E-05
   4.6475912598431535E-05   5.2357713407093925E-04   1.0202621845504658E+00   3.0740643488286379E-05
   6.7090508741318722E-05   7.5581208256460101E-04   1.0204953326426218E+00   3.0971152543734120E-05
   8.9003977123525146E-05   1.0026795528659859E-03   1.0207431707913994E+00   3.1210298271342190E-05
   1.1229746129604035E-04   1.2650936724327643E-03   1.0210066167185894E+00   3.1458456331422332E-05
   1.3705708341593681E-04   1.5440246555037318E-03   1.0212866444532951E+00   3.1715778439307667E-05
   1.6337423787959882E-04   1.8405021110416214E-03   1.0215842876528838E+00   3.1983601091947174E-05
   1.9134590071845370E-04   2.1556185282470067E-03   1.0219006431022035E+00   3.2261068152973033E-05
   2.2107495539347433E-04   2.4905329468162644E-03   1.0222368743982744E+00   3.2551192574911652E-05
   2.7431330569505086E-04   2.8426239949834826E-03   1.0225936050769715E+00   3.4190236518694173E-05
   3.6321996968891046E-04   3.2110527801832243E-03   1.0229727549418661E+00   3.5076990681336873E-05
   4.6838588101816292E-04   3.6006771950957087E-03   1.0233763228464394E+00   3.5347444063671277E-05
   5.8013924035482667E-04   4.0147071473465596E-03   1.0238051696893611E+00   3.5630727518353784E-05
   6.9888654562721975E-04   4.4546486526726783E-03   1.0242608553821562E+00   3.5926392132111566E-05
   8.2505858256176623E-04   4.9220977095731314E-03   1.0247450330393248E+00   3.6235792694847108E-05
   9.7141395564359634E-04   5.4143134950892582E-03   1.0252587028557396E+00   3.7062551089860484E-05
   1.1695956130530760E-03   5.9218621372449931E-03   1.0258044713918870E+00   3.8540823111308584E-05
   1.4105207066347214E-03   6.4500969292936817E-03   1.0263850546298883E+00   3.8822278647526604E-05
   1.6664442566332038E-03   7.0112162432021292E-03   1.0270017812694012E+00   3.9124075792079800E-05
   1.9382797883745750E-03   7.6072230079861731E-03   1.0276568527311405E+00   3.9439726412353751E-05
   2.2512751718546387E-03   8.2269301144449226E-03   1.0283516361407117E+00   4.0512113052840304E-05
   2.6311174577704488E-03   8.8590626154073752E-03   1.0290895571875851E+00   4.1483225501059593E-05
   3.0576340820647196E-03   9.5176375152664673E-03   1.0298741827858953E+00   4.1768952316307318E-05
   3.5105125398618986E-03   1.0216917140030733E-02   1.0307073039602435E+00   4.2076430359821396E-05
   4.0190847604693047E-03   1.0938761176696718E-02   1.0315909487889376E+00   4.3106160557876568E-05
   4.6065053490936814E-03   1.1669813360974172E-02   1.0325290695549123E+00   4.3872650686993777E-05
   5.2498094971881182E-03   1.2431134500849213E-02   1.0335257892271252E+00   4.4147103979546418E-05
   5.9403543649396706E-03   1.3231828961561429E-02   1.0345831781050741E+00   4.4625894780289732E-05
   6.7179372800304504E-03   1.4039368227467364E-02   1.0357053135304652E+00   4.5746014073963368E-05
   7.5799916350206553E-03   1.4861383878364984E-02   1.0368964673581795E+00   4.5984511266440092E-05
   8.4990293811834094E-03   1.5728327215282452E-02   1.0381599011149520E+00   4.6355514553939827E-05
   9.5146498374808486E-03   1.6601126499920335E-02   1.0395001030237780E+00   4.7388243344714802E-05
   1.0628067828227450E-02   1.7485132334925227E-02   1.0409217801806745E+00   4.7599015379592080E-05
   1.1819523868369153E-02   1.8407816325225736E-02   1.0424288392395031E+00   4.8069599082296476E-05
   1.3119162830177000E-02   1.9336355968399589E-02   1.0440266573247285E+00   4.8811441864378499E-05
   1.4522438759381862E-02   2.0285628638361867E-02   1.0457208538704172E+00   4.8999639295928935E-05
   1.6031768369429100E-02   2.1256497732598127E-02   1.0475159282980493E+00   4.9663744158570081E-05
   1.7663358912446414E-02   2.2233831741140880E-02   1.0494179313558367E+00   5.0026418315383023E-05
   1.9408747439894070E-02   2.3240540438588121E-02   1.0514328835087174E+00   5.0336358880746546E-05
   2.1285925135969386E-02   2.4254466339461985E-02   1.0535668455857898E+00   5.0930460569646571E-05
   2.3295350491638889E-02   2.5288154015231698E-02   1.0558265580610942E+00   5.1048703386633772E-05
   2.5446074442345701E-02   2.6333303839489799E-02   1.0582183678128110E+00   5.1670920323161380E-05
   2.7747462452354155E-02   2.7386646977646395E-02   1.0607493624590174E+00   5.1780637613020402E-05
   3.0200586923345929E-02   2.8458358833915537E-02   1.0634266909311487E+00   5.2228033966717570E-05
   3.2817577520566577E-02   2.9538982243979856E-02   1.0662580510219493E+00   5.2397077932238116E-05
   3.5603465162730052E-02   3.0633036567808483E-02   1.0692512805769745E+00   5.2730877513750051E-05
   3.8567908514863136E-02   3.1736509253952785E-02   1.0724144964825610E+00   5.2890565247162590E-05
   4.1718749509251252E-02   3.2848838624072077E-02   1.0757561115216383E+00   5.3159613824927326E-05
   4.5064197640927395E-02   3.3970806083240393E-02   1.0792847310556497E+00   5.3260921460073346E-05
   4.8614105539948160E-02   3.5097227371018419E-02   1.0830092944420442E+00   5.3504262686146687E-05
   5.2375882586847333E-02   3.6233161246970208E-02   1.0869388572674659E+00   5.3513352554572302E-05
   5.6360807675096991E-02   3.7369144046535963E-02   1.0910828447166732E+00   5.3763299050293311E-05
   6.0578561078121873E-02   3.8503774173361517E-02   1.0954505669845991E+00   5.3719167397791516E-05
   6.5036038626779202E-02   3.9644246870985861E-02   1.1000518239145745E+00   5.3856911196578125E-05
   6.9746322519423587E-02   4.0776460304342760E-02   1.1048963459017551E+00   5.3852371605883725E-05
   7.4715057843567911E-02   4.1915652166143541E-02   1.1099940654114424E+00   5.3831273508600906E-05
   7.9956199326949751E-02   4.3041744037572091E-02   1.1153550153414686E+00   5.3904419483809855E-05
   8.5478682657218030E-02   4.4156625632513630E-02   1.1209889546903236E+00   5.3802279166193672E-05
   9.1289935157946367E-02   4.5269598835283476E-02   1.1269059322362149E+00   5.3770732520733248E-05
   9.7403022463563471E-02   4.6360464483589214E-02   1.1331157243846364E+00   5.3734321194848216E-05
   1.0382571031391874E-01   4.7435593071913654E-02   1.1396278326988671E+00   5.3603631048471970E-05
   1.1056612021950629E-01   4.8499578339151181E-02   1.1464517911078835E+00   5.3502626026380763E-05
   1.1763587453650537E-01   4.9531759955526798E-02   1.1535966453139013E+00   5.3431323590286731E-05
   1.2504264852972446E-01   5.0533484382694255E-02   1.1610709157715571E+00   5.3263185423650794E-05
   1.3279257259813826E-01   5.1515270997806485E-02   1.1688828510823661E+00   5.3102639264687546E-05
   1.4089453179239908E-01   5.2462704339452285E-02   1.1770401336126768E+00   5.2970447522753064E-05
   1.4935600884502265E-01   5.3364027754368951E-02   1.1855495853708471E+00   5.2814044399560301E-05
   1.5818183953779064E-01   5.4223735604437856E-02   1.1944172617194304E+00   5.2619268240475763E-05
   1.6737645019007386E-01   5.5043934444496387E-02   1.2036484589489631E+00   5.2427068994972236E-05
   1.7694404877313974E-01   5.5819153919153555E-02   1.2132474912167763E+00   5.2233781376007354E-05
   1.8688809712889054E-01   5.6536532695902815E-02   1.2232174957125439E+00   5.2063669459536214E-05
   1.9721019576465426E-01   5.7189754056558961E-02   1.2335603282441445E+00   5.1860758066652970E-05
   2.0790992703370714E-01   5.7782990834098880E-02   1.2442765681893218E+00   5.1651709193141513E-05
   2.1898598151327398E-01   5.8314327835850124E-02   1.2553654357914277E+00   5.1443221146211066E-05
   2.3043565734658444E-01   5.8779501742304847E-02   1.2668246328110495E+00   5.1237529736679575E-05
   2.4225459041835595E-01   5.9174620214531862E-02   1.2786502434439164E+00   5.1032759769272712E-05
   2.5443668776542527E-01   5.9496192359581201E-02   1.2908366578597967E+00   5.0830631207412957E-05
   2.6697407153295061E-01   5.9741159346480943E-02   1.3033765063966407E+00   5.0629898675245994E-05
   2.7985705015059270E-01   5.9904449545950256E-02   1.3162605977805475E+00   5.0436367636469854E-05
   2.9307402775971425E-01   5.9983508179855628E-02   1.3294778803221405E+00   5.0236619974610432E-05
   3.0661152736001063E-01   5.9979850960328818E-02   1.3430154428370453E+00   5.0038158679406587E-05
   3.2045427114027492E-01   5.9893417911936184E-02   1.3568585162865749E+00   4.9842462007595018E-05
   3.3458515451492865E-01   5.9723531067212024E-02   1.3709904778777848E+00   4.9650794871459080E-05
   3.4898527893985964E-01   5.9470063986553107E-02   1.3853928869313428E+00   4.9462150422868872E-05
   3.6363402090093577E-01   5.9133441747794155E-02   1.4000455471062740E+00   4.9277437445461699E-05
   3.7850912242168411E-01   5.8714634157915030E-02   1.4149265910782709E+00   4.9096291181185546E-05
   3.9358680289028636E-01   5.8215142104202144E-02   1.4300125875552119E+00   4.8919222479009015E-05
   4.0884189153918338E-01   5.7636977173961296E-02   1.4452786700192486E+00   4.8746347767499277E-05
   4.2424797943662007E-01   5.6982634871826941E-02   1.4606986860802991E+00   4.8578002160105782E-05
   4.3977758938236811E-01   5.6255061946096065E-02   1.4762453658269865E+00   4.8414244918024996E-05
   4.5540236165478509E-01   5.5457618494895417E-02   1.4918905070850130E+00   4.8255490232932399E-05
   4.7109325314879857E-01   5.4594035654575324E-02   1.5076051750567723E+00   4.8101552536093599E-05
   4.8682074708936462E-01   5.3668369772674168E-02   1.5233599134361198E+00   4.7953121399219541E-05
   5.0255507021615464E-01   5.2684954033488399E-02   1.5391249637834008E+00   4.7809904728618794E-05
   5.1826641412425811E-01   5.1648348534481824E-02   1.5548704897203514E+00   4.7672520206079026E-05
   5.3392515732132273E-01   5.0563289806742427E-02   1.5705668023714900E+00   4.7540734509436592E-05