 variables=iter,cl,cd,cm,clim,cdim,cmim,clip,cdip,cmip,cljm,cdjm,cmjm,cljp,cdjp,cmjp
 zone t ="coefhist", f=point
       1  1.121681E-01  2.519237E-02 -5.652181E-02  0.000000E+00  0.000000E+00  0.000000E+00  0.000000E+00  0.000000E+00  0.000000E+00  1.121681E-01  2.519237E-02 -5.652181E-02  0.000000E+00  0.000000E+00  0.000000E+00
      11  9.960073E-01  2.325425E-01 -5.055901E-01  0.000000E+00  0.000000E+00  0.000000E+00  0.000000E+00  0.000000E+00  0.000000E+00  9.960073E-01  2.325425E-01 -5.055901E-01  0.000000E+00  0.000000E+00  0.000000E+00
      21  1.311413E+00  3.319497E-01 -6.663394E-01  0.000000E+00  0.000000E+00  0.000000E+00  0.000000E+00  0.000000E+00  0.000000E+00  1.311413E+00  3.319497E-01 -6.663394E-01  0.000000E+00  0.000000E+00  0.000000E+00
      31  1.235619E+00  3.476078E-01 -6.226158E-01  0.000000E+00  0.000000E+00  0.000000E+00  0.000000E+00  0.000000E+00  0.000000E+00  1.235619E+00  3.476078E-01 -6.226158E-01  0.000000E+00  0.000000E+00  0.000000E+00
      41  1.062200E+00  3.282772E-01 -5.269947E-01  0.000000E+00  0.000000E+00  0.000000E+00  0.000000E+00  0.000000E+00  0.000000E+00  1.062200E+00  3.282772E-01 -5.269947E-01  0.000000E+00  0.000000E+00  0.000000E+00
      51  9.341424E-01  3.021338E-01 -4.550566E-01  0.000000E+00  0.000000E+00  0.000000E+00  0.000000E+00  0.000000E+00  0.000000E+00  9.341424E-01  3.021338E-01 -4.550566E-01  0.000000E+00  0.000000E+00  0.000000E+00
      61  8.563859E-01  2.764184E-01 -4.084389E-01  0.000000E+00  0.000000E+00  0.000000E+00  0.000000E+00  0.000000E+00  0.000000E+00  8.563859E-01  2.764184E-01 -4.084389E-01  0.000000E+00  0.000000E+00  0.000000E+00
      71  7.944044E-01  2.508822E-01 -3.678265E-01  0.000000E+00  0.000000E+00  0.000000E+00  0.000000E+00  0.000000E+00  0.000000E+00  7.944044E-01  2.508822E-01 -3.678265E-01  0.000000E+00  0.000000E+00  0.000000E+00
      81  7.298068E-01  2.253310E-01 -3.237512E-01  0.000000E+00  0.000000E+00  0.000000E+00  0.000000E+00  0.000000E+00  0.000000E+00  7.298068E-01  2.253310E-01 -3.237512E-01  0.000000E+00  0.000000E+00  0.000000E+00
      91  6.631611E-01  2.001676E-01 -2.777097E-01  0.000000E+00  0.000000E+00  0.000000E+00  0.000000E+00  0.000000E+00  0.000000E+00  6.631611E-01  2.001676E-01 -2.777097E-01  0.000000E+00  0.000000E+00  0.000000E+00
     101  6.005024E-01  1.752023E-01 -2.338083E-01  0.000000E+00  0.000000E+00  0.000000E+00  0.000000E+00  0.000000E+00  0.000000E+00  6.005024E-01  1.752023E-01 -2.338083E-01  0.000000E+00  0.000000E+00  0.000000E+00
     111  5.453564E-01  1.495279E-01 -1.940717E-01  0.000000E+00  0.000000E+00  0.000000E+00  0.000000E+00  0.000000E+00  0.000000E+00  5.453564E-01  1.495279E-01 -1.940717E-01  0.000000E+00  0.000000E+00  0.000000E+00
     121  4.981223E-01  1.222585E-01 -1.584118E-01  0.000000E+00  0.000000E+00  0.000000E+00  0.000000E+00  0.000000E+00  0.000000E+00  4.981223E-01  1.222585E-01 -1.584118E-01  0.000000E+00  0.000000E+00  0.000000E+00
     131  4.579744E-01  9.318436E-02 -1.260958E-01  0.000000E+00  0.000000E+00  0.000000E+00  0.000000E+00  0.000000E+00  0.000000E+00  4.579744E-01  9.318436E-02 -1.260958E-01  0.000000E+00  0.000000E+00  0.000000E+00
     141  4.240231E-01  6.291496E-02 -9.667619E-02  0.000000E+00  0.000000E+00  0.000000E+00  0.000000E+00  0.000000E+00  0.000000E+00  4.240231E-01  6.291496E-02 -9.667619E-02  0.000000E+00  0.000000E+00  0.000000E+00
     151  3.953197E-01  3.262011E-02 -7.010204E-02  0.000000E+00  0.000000E+00  0.000000E+00  0.000000E+00  0.000000E+00  0.000000E+00  3.953197E-01  3.262011E-02 -7.010204E-02  0.000000E+00  0.000000E+00  0.000000E+00
     161  3.705461E-01  3.643264E-03 -4.648372E-02  0.000000E+00  0.000000E+00  0.000000E+00  0.000000E+00  0.000000E+00  0.000000E+00  3.705461E-01  3.643264E-03 -4.648372E-02  0.000000E+00  0.000000E+00  0.000000E+00
     171  3.480386E-01 -2.281741E-02 -2.589622E-02  0.000000E+00  0.000000E+00  0.000000E+00  0.000000E+00  0.000000E+00  0.000000E+00  3.480386E-01 -2.281741E-02 -2.589622E-02  0.000000E+00  0.000000E+00  0.000000E+00
     181  3.261616E-01 -4.588163E-02 -8.305600E-03  0.000000E+00  0.000000E+00  0.000000E+00  0.000000E+00  0.000000E+00  0.000000E+00  3.261616E-01 -4.588163E-02 -8.305600E-03  0.000000E+00  0.000000E+00  0.000000E+00
     191  3.037246E-01 -6.501462E-02  6.440033E-03  0.000000E+00  0.000000E+00  0.000000E+00  0.000000E+00  0.000000E+00  0.000000E+00  3.037246E-01 -6.501462E-02  6.440033E-03  0.000000E+00  0.000000E+00  0.000000E+00
     201  2.801924E-01 -7.995913E-02  1.859694E-02  0.000000E+00  0.000000E+00  0.000000E+00  0.000000E+00  0.000000E+00  0.000000E+00  2.801924E-01 -7.995913E-02  1.859694E-02  0.000000E+00  0.000000E+00  0.000000E+00
     211  2.556228E-01 -9.062937E-02  2.847940E-02  0.000000E+00  0.000000E+00  0.000000E+00  0.000000E+00  0.000000E+00  0.000000E+00  2.556228E-01 -9.062937E-02  2.847940E-02  0.000000E+00  0.000000E+00  0.000000E+00
     221  2.301227E-01 -9.709310E-02  3.649835E-02  0.000000E+00  0.000000E+00  0.000000E+00  0.000000E+00  0.000000E+00  0.000000E+00  2.301227E-01 -9.709310E-02  3.649835E-02  0.000000E+00  0.000000E+00  0.000000E+00
     231  2.035322E-01 -9.963798E-02  4.324546E-02  0.000000E+00  0.000000E+00  0.000000E+00  0.000000E+00  0.000000E+00  0.000000E+00  2.035322E-01 -9.963798E-02  4.324546E-02  0.000000E+00  0.000000E+00  0.000000E+00
     241  1.757479E-01 -9.875367E-02  4.937257E-02  0.000000E+00  0.000000E+00  0.000000E+00  0.000000E+00  0.000000E+00  0.000000E+00  1.757479E-01 -9.875367E-02  4.937257E-02  0.000000E+00  0.000000E+00  0.000000E+00
     251  1.470997E-01 -9.505473E-02  5.535213E-02  0.000000E+00  0.000000E+00  0.000000E+00  0.000000E+00  0.000000E+00  0.000000E+00  1.470997E-01 -9.505473E-02  5.535213E-02  0.000000E+00  0.000000E+00  0.000000E+00
     261  1.183798E-01 -8.921353E-02  6.132539E-02  0.000000E+00  0.000000E+00  0.000000E+00  0.000000E+00  0.000000E+00  0.000000E+00  1.183798E-01 -8.921353E-02  6.132539E-02  0.000000E+00  0.000000E+00  0.000000E+00
     271  9.066789E-02 -8.190877E-02  6.710036E-02  0.000000E+00  0.000000E+00  0.000000E+00  0.000000E+00  0.000000E+00  0.000000E+00  9.066789E-02 -8.190877E-02  6.710036E-02  0.000000E+00  0.000000E+00  0.000000E+00
     281  6.521203E-02 -7.375925E-02  7.221101E-02  0.000000E+00  0.000000E+00  0.000000E+00  0.000000E+00  0.000000E+00  0.000000E+00  6.521203E-02 -7.375925E-02  7.221101E-02  0.000000E+00  0.000000E+00  0.000000E+00
     291  4.337157E-02 -6.525383E-02  7.598574E-02  0.000000E+00  0.000000E+00  0.000000E+00  0.000000E+00  0.000000E+00  0.000000E+00  4.337157E-02 -6.525383E-02  7.598574E-02  0.000000E+00  0.000000E+00  0.000000E+00
     301  2.653562E-02 -5.671350E-02  7.764068E-02  0.000000E+00  0.000000E+00  0.000000E+00  0.000000E+00  0.000000E+00  0.000000E+00  2.653562E-02 -5.671350E-02  7.764068E-02  0.000000E+00  0.000000E+00  0.000000E+00
     311  1.602034E-02 -4.829928E-02  7.640375E-02  0.000000E+00  0.000000E+00  0.000000E+00  0.000000E+00  0.000000E+00  0.000000E+00  1.602034E-02 -4.829928E-02  7.640375E-02  0.000000E+00  0.000000E+00  0.000000E+00
     321  1.298236E-02 -4.005410E-02  7.165557E-02  0.000000E+00  0.000000E+00  0.000000E+00  0.000000E+00  0.000000E+00  0.000000E+00  1.298236E-02 -4.005410E-02  7.165557E-02  0.000000E+00  0.000000E+00  0.000000E+00
     331  1.830808E-02 -3.196098E-02  6.308667E-02  0.000000E+00  0.000000E+00  0.000000E+00  0.000000E+00  0.000000E+00  0.000000E+00  1.830808E-02 -3.196098E-02  6.308667E-02  0.000000E+00  0.000000E+00  0.000000E+00
     341  3.240822E-02 -2.400296E-02  5.086282E-02  0.000000E+00  0.000000E+00  0.000000E+00  0.000000E+00  0.000000E+00  0.000000E+00  3.240822E-02 -2.400296E-02  5.086282E-02  0.000000E+00  0.000000E+00  0.000000E+00
     351  5.494459E-02 -1.621219E-02  3.573064E-02  0.000000E+00  0.000000E+00  0.000000E+00  0.000000E+00  0.000000E+00  0.000000E+00  5.494459E-02 -1.621219E-02  3.573064E-02  0.000000E+00  0.000000E+00  0.000000E+00
     361  8.466056E-02 -8.697578E-03  1.894867E-02  0.000000E+00  0.000000E+00  0.000000E+00  0.000000E+00  0.000000E+00  0.000000E+00  8.466056E-02 -8.697578E-03  1.894867E-02  0.000000E+00  0.000000E+00  0.000000E+00
     371  1.195259E-01 -1.637073E-03  1.978204E-03  0.000000E+00  0.000000E+00  0.000000E+00  0.000000E+00  0.000000E+00  0.000000E+00  1.195259E-01 -1.637073E-03  1.978204E-03  0.000000E+00  0.000000E+00  0.000000E+00
     381  1.571770E-01  4.758536E-03 -1.396792E-02  0.000000E+00  0.000000E+00  0.000000E+00  0.000000E+00  0.000000E+00  0.000000E+00  1.571770E-01  4.758536E-03 -1.396792E-02  0.000000E+00  0.000000E+00  0.000000E+00
     391  1.954232E-01  1.028586E-02 -2.826085E-02  0.000000E+00  0.000000E+00  0.000000E+00  0.000000E+00  0.000000E+00  0.000000E+00  1.954232E-01  1.028586E-02 -2.826085E-02  0.000000E+00  0.000000E+00  0.000000E+00
     401  2.326473E-01  1.478971E-02 -4.084825E-02  0.000000E+00  0.000000E+00  0.000000E+00  0.000000E+00  0.000000E+00  0.000000E+00  2.326473E-01  1.478971E-02 -4.084825E-02  0.000000E+00  0.000000E+00  0.000000E+00
     411  2.679814E-01  1.823548E-02 -5.206507E-02  0.000000E+00  0.000000E+00  0.000000E+00  0.000000E+00  0.000000E+00  0.000000E+00  2.679814E-01  1.823548E-02 -5.206507E-02  0.000000E+00  0.000000E+00  0.000000E+00
     421  3.010378E-01  2.072941E-02 -6.232284E-02  0.000000E+00  0.000000E+00  0.000000E+00  0.000000E+00  0.000000E+00  0.000000E+00  3.010378E-01  2.072941E-02 -6.232284E-02  0.000000E+00  0.000000E+00  0.000000E+00
     431  3.315668E-01  2.247582E-02 -7.186014E-02  0.000000E+00  0.000000E+00  0.000000E+00  0.000000E+00  0.000000E+00  0.000000E+00  3.315668E-01  2.247582E-02 -7.186014E-02  0.000000E+00  0.000000E+00  0.000000E+00
     441  3.593373E-01  2.371193E-02 -8.070582E-02  0.000000E+00  0.000000E+00  0.000000E+00  0.000000E+00  0.000000E+00  0.000000E+00  3.593373E-01  2.371193E-02 -8.070582E-02  0.000000E+00  0.000000E+00  0.000000E+00
     451  3.841945E-01  2.464733E-02 -8.879077E-02  0.000000E+00  0.000000E+00  0.000000E+00  0.000000E+00  0.000000E+00  0.000000E+00  3.841945E-01  2.464733E-02 -8.879077E-02  0.000000E+00  0.000000E+00  0.000000E+00
     461  4.061242E-01  2.542257E-02 -9.606053E-02  0.000000E+00  0.000000E+00  0.000000E+00  0.000000E+00  0.000000E+00  0.000000E+00  4.061242E-01  2.542257E-02 -9.606053E-02  0.000000E+00  0.000000E+00  0.000000E+00
     471  4.252500E-01  2.609920E-02 -1.025208E-01  0.000000E+00  0.000000E+00  0.000000E+00  0.000000E+00  0.000000E+00  0.000000E+00  4.252500E-01  2.609920E-02 -1.025208E-01  0.000000E+00  0.000000E+00  0.000000E+00
     481  4.417933E-01  2.668805E-02 -1.082363E-01  0.000000E+00  0.000000E+00  0.000000E+00  0.000000E+00  0.000000E+00  0.000000E+00  4.417933E-01  2.668805E-02 -1.082363E-01  0.000000E+00  0.000000E+00  0.000000E+00
     491  4.560236E-01  2.720799E-02 -1.133161E-01  0.000000E+00  0.000000E+00  0.000000E+00  0.000000E+00  0.000000E+00  0.000000E+00  4.560236E-01  2.720799E-02 -1.133161E-01  0.000000E+00  0.000000E+00  0.000000E+00
     501  4.681981E-01  2.774448E-02 -1.178967E-01  0.000000E+00  0.000000E+00  0.000000E+00  0.000000E+00  0.000000E+00  0.000000E+00  4.681981E-01  2.774448E-02 -1.178967E-01  0.000000E+00  0.000000E+00  0.000000E+00
     511  4.784892E-01  2.846084E-02 -1.221189E-01  0.000000E+00  0.000000E+00  0.000000E+00  0.000000E+00  0.000000E+00  0.000000E+00  4.784892E-01  2.846084E-02 -1.221189E-01  0.000000E+00  0.000000E+00  0.000000E+00
     521  4.869424E-01  2.954012E-02 -1.260993E-01  0.000000E+00  0.000000E+00  0.000000E+00  0.000000E+00  0.000000E+00  0.000000E+00  4.869424E-01  2.954012E-02 -1.260993E-01  0.000000E+00  0.000000E+00  0.000000E+00
     531  4.935163E-01  3.109172E-02 -1.299047E-01  0.000000E+00  0.000000E+00  0.000000E+00  0.000000E+00  0.000000E+00  0.000000E+00  4.935163E-01  3.109172E-02 -1.299047E-01  0.000000E+00  0.000000E+00  0.000000E+00
     541  4.982063E-01  3.307808E-02 -1.335371E-01  0.000000E+00  0.000000E+00  0.000000E+00  0.000000E+00  0.000000E+00  0.000000E+00  4.982063E-01  3.307808E-02 -1.335371E-01  0.000000E+00  0.000000E+00  0.000000E+00
     551  5.012076E-01  3.529587E-02 -1.369326E-01  0.000000E+00  0.000000E+00  0.000000E+00  0.000000E+00  0.000000E+00  0.000000E+00  5.012076E-01  3.529587E-02 -1.369326E-01  0.000000E+00  0.000000E+00  0.000000E+00
     561  5.030291E-01  3.741364E-02 -1.399772E-01  0.000000E+00  0.000000E+00  0.000000E+00  0.000000E+00  0.000000E+00  0.000000E+00  5.030291E-01  3.741364E-02 -1.399772E-01  0.000000E+00  0.000000E+00  0.000000E+00
     571  5.044782E-01  3.904994E-02 -1.425405E-01  0.000000E+00  0.000000E+00  0.000000E+00  0.000000E+00  0.000000E+00  0.000000E+00  5.044782E-01  3.904994E-02 -1.425405E-01  0.000000E+00  0.000000E+00  0.000000E+00
     581  5.064527E-01  3.986316E-02 -1.445160E-01  0.000000E+00  0.000000E+00  0.000000E+00  0.000000E+00  0.000000E+00  0.000000E+00  5.064527E-01  3.986316E-02 -1.445160E-01  0.000000E+00  0.000000E+00  0.000000E+00
     591  5.095819E-01  3.961967E-02 -1.458430E-01  0.000000E+00  0.000000E+00  0.000000E+00  0.000000E+00  0.000000E+00  0.000000E+00  5.095819E-01  3.961967E-02 -1.458430E-01  0.000000E+00  0.000000E+00  0.000000E+00
     601  5.139083E-01  3.822207E-02 -1.465043E-01  0.000000E+00  0.000000E+00  0.000000E+00  0.000000E+00  0.000000E+00  0.000000E+00  5.139083E-01  3.822207E-02 -1.465043E-01  0.000000E+00  0.000000E+00  0.000000E+00
     611  5.188255E-01  3.570398E-02 -1.465131E-01  0.000000E+00  0.000000E+00  0.000000E+00  0.000000E+00  0.000000E+00  0.000000E+00  5.188255E-01  3.570398E-02 -1.465131E-01  0.000000E+00  0.000000E+00  0.000000E+00
     621  5.233420E-01  3.221037E-02 -1.459060E-01  0.000000E+00  0.000000E+00  0.000000E+00  0.000000E+00  0.000000E+00  0.000000E+00  5.233420E-01  3.221037E-02 -1.459060E-01  0.000000E+00  0.000000E+00  0.000000E+00
     631  5.265175E-01  2.797723E-02 -1.447437E-01  0.000000E+00  0.000000E+00  0.000000E+00  0.000000E+00  0.000000E+00  0.000000E+00  5.265175E-01  2.797723E-02 -1.447437E-01  0.000000E+00  0.000000E+00  0.000000E+00
     641  5.278099E-01  2.330539E-02 -1.431029E-01  0.000000E+00  0.000000E+00  0.000000E+00  0.000000E+00  0.000000E+00  0.000000E+00  5.278099E-01  2.330539E-02 -1.431029E-01  0.000000E+00  0.000000E+00  0.000000E+00
     651  5.271780E-01  1.851979E-02 -1.410515E-01  0.000000E+00  0.000000E+00  0.000000E+00  0.000000E+00  0.000000E+00  0.000000E+00  5.271780E-01  1.851979E-02 -1.410515E-01  0.000000E+00  0.000000E+00  0.000000E+00
     661  5.249721E-01  1.391890E-02 -1.386252E-01  0.000000E+00  0.000000E+00  0.000000E+00  0.000000E+00  0.000000E+00  0.000000E+00  5.249721E-01  1.391890E-02 -1.386252E-01  0.000000E+00  0.000000E+00  0.000000E+00
     671  5.217502E-01  9.733957E-03 -1.358311E-01  0.000000E+00  0.000000E+00  0.000000E+00  0.000000E+00  0.000000E+00  0.000000E+00  5.217502E-01  9.733957E-03 -1.358311E-01  0.000000E+00  0.000000E+00  0.000000E+00
     681  5.181175E-01  6.111526E-03 -1.326826E-01  0.000000E+00  0.000000E+00  0.000000E+00  0.000000E+00  0.000000E+00  0.000000E+00  5.181175E-01  6.111526E-03 -1.326826E-01  0.000000E+00  0.000000E+00  0.000000E+00
     691  5.146075E-01  3.116860E-03 -1.292431E-01  0.000000E+00  0.000000E+00  0.000000E+00  0.000000E+00  0.000000E+00  0.000000E+00  5.146075E-01  3.116860E-03 -1.292431E-01  0.000000E+00  0.000000E+00  0.000000E+00
     701  5.115970E-01  7.465719E-04 -1.256474E-01  0.000000E+00  0.000000E+00  0.000000E+00  0.000000E+00  0.000000E+00  0.000000E+00  5.115970E-01  7.465719E-04 -1.256474E-01  0.000000E+00  0.000000E+00  0.000000E+00
     711  5.092583E-01 -1.057031E-03 -1.220910E-01  0.000000E+00  0.000000E+00  0.000000E+00  0.000000E+00  0.000000E+00  0.000000E+00  5.092583E-01 -1.057031E-03 -1.220910E-01  0.000000E+00  0.000000E+00  0.000000E+00
     721  5.075626E-01 -2.390115E-03 -1.187958E-01  0.000000E+00  0.000000E+00  0.000000E+00  0.000000E+00  0.000000E+00  0.000000E+00  5.075626E-01 -2.390115E-03 -1.187958E-01  0.000000E+00  0.000000E+00  0.000000E+00
     731  5.063301E-01 -3.367619E-03 -1.159682E-01  0.000000E+00  0.000000E+00  0.000000E+00  0.000000E+00  0.000000E+00  0.000000E+00  5.063301E-01 -3.367619E-03 -1.159682E-01  0.000000E+00  0.000000E+00  0.000000E+00
     741  5.053060E-01 -4.100548E-03 -1.137597E-01  0.000000E+00  0.000000E+00  0.000000E+00  0.000000E+00  0.000000E+00  0.000000E+00  5.053060E-01 -4.100548E-03 -1.137597E-01  0.000000E+00  0.000000E+00  0.000000E+00
     751  5.042380E-01 -4.674605E-03 -1.122402E-01  0.000000E+00  0.000000E+00  0.000000E+00  0.000000E+00  0.000000E+00  0.000000E+00  5.042380E-01 -4.674605E-03 -1.122402E-01  0.000000E+00  0.000000E+00  0.000000E+00
     761  5.029373E-01 -5.135850E-03 -1.113881E-01  0.000000E+00  0.000000E+00  0.000000E+00  0.000000E+00  0.000000E+00  0.000000E+00  5.029373E-01 -5.135850E-03 -1.113881E-01  0.000000E+00  0.000000E+00  0.000000E+00
     771  5.013147E-01 -5.487857E-03 -1.111012E-01  0.000000E+00  0.000000E+00  0.000000E+00  0.000000E+00  0.000000E+00  0.000000E+00  5.013147E-01 -5.487857E-03 -1.111012E-01  0.000000E+00  0.000000E+00  0.000000E+00
     781  4.993915E-01 -5.700508E-03 -1.112252E-01  0.000000E+00  0.000000E+00  0.000000E+00  0.000000E+00  0.000000E+00  0.000000E+00  4.993915E-01 -5.700508E-03 -1.112252E-01  0.000000E+00  0.000000E+00  0.000000E+00
     791  4.972837E-01 -5.727338E-03 -1.115923E-01  0.000000E+00  0.000000E+00  0.000000E+00  0.000000E+00  0.000000E+00  0.000000E+00  4.972837E-01 -5.727338E-03 -1.115923E-01  0.000000E+00  0.000000E+00  0.000000E+00
     801  4.951677E-01 -5.525872E-03 -1.120589E-01  0.000000E+00  0.000000E+00  0.000000E+00  0.000000E+00  0.000000E+00  0.000000E+00  4.951677E-01 -5.525872E-03 -1.120589E-01  0.000000E+00  0.000000E+00  0.000000E+00
     811  4.932404E-01 -5.074423E-03 -1.125328E-01  0.000000E+00  0.000000E+00  0.000000E+00  0.000000E+00  0.000000E+00  0.000000E+00  4.932404E-01 -5.074423E-03 -1.125328E-01  0.000000E+00  0.000000E+00  0.000000E+00
     821  4.916849E-01 -4.380640E-03 -1.129838E-01  0.000000E+00  0.000000E+00  0.000000E+00  0.000000E+00  0.000000E+00  0.000000E+00  4.916849E-01 -4.380640E-03 -1.129838E-01  0.000000E+00  0.000000E+00  0.000000E+00
     831  4.906504E-01 -3.480392E-03 -1.134378E-01  0.000000E+00  0.000000E+00  0.000000E+00  0.000000E+00  0.000000E+00  0.000000E+00  4.906504E-01 -3.480392E-03 -1.134378E-01  0.000000E+00  0.000000E+00  0.000000E+00
     841  4.902441E-01 -2.428964E-03 -1.139580E-01  0.000000E+00  0.000000E+00  0.000000E+00  0.000000E+00  0.000000E+00  0.000000E+00  4.902441E-01 -2.428964E-03 -1.139580E-01  0.000000E+00  0.000000E+00  0.000000E+00
     851  4.905312E-01 -1.288462E-03 -1.146192E-01  0.000000E+00  0.000000E+00  0.000000E+00  0.000000E+00  0.000000E+00  0.000000E+00  4.905312E-01 -1.288462E-03 -1.146192E-01  0.000000E+00  0.000000E+00  0.000000E+00
     861  4.915370E-01 -1.157510E-04 -1.154824E-01  0.000000E+00  0.000000E+00  0.000000E+00  0.000000E+00  0.000000E+00  0.000000E+00  4.915370E-01 -1.157510E-04 -1.154824E-01  0.000000E+00  0.000000E+00  0.000000E+00
     871  4.932523E-01  1.046438E-03 -1.165763E-01  0.000000E+00  0.000000E+00  0.000000E+00  0.000000E+00  0.000000E+00  0.000000E+00  4.932523E-01  1.046438E-03 -1.165763E-01  0.000000E+00  0.000000E+00  0.000000E+00
     881  4.956442E-01  2.174198E-03 -1.178914E-01  0.000000E+00  0.000000E+00  0.000000E+00  0.000000E+00  0.000000E+00  0.000000E+00  4.956442E-01  2.174198E-03 -1.178914E-01  0.000000E+00  0.000000E+00  0.000000E+00
     891  4.986699E-01  3.262785E-03 -1.193868E-01  0.000000E+00  0.000000E+00  0.000000E+00  0.000000E+00  0.000000E+00  0.000000E+00  4.986699E-01  3.262785E-03 -1.193868E-01  0.000000E+00  0.000000E+00  0.000000E+00
     901  5.022912E-01  4.323091E-03 -1.210084E-01  0.000000E+00  0.000000E+00  0.000000E+00  0.000000E+00  0.000000E+00  0.000000E+00  5.022912E-01  4.323091E-03 -1.210084E-01  0.000000E+00  0.000000E+00  0.000000E+00
     911  5.064841E-01  5.375417E-03 -1.227091E-01  0.000000E+00  0.000000E+00  0.000000E+00  0.000000E+00  0.000000E+00  0.000000E+00  5.064841E-01  5.375417E-03 -1.227091E-01  0.000000E+00  0.000000E+00  0.000000E+00
     921  5.112435E-01  6.442193E-03 -1.244669E-01  0.000000E+00  0.000000E+00  0.000000E+00  0.000000E+00  0.000000E+00  0.000000E+00  5.112435E-01  6.442193E-03 -1.244669E-01  0.000000E+00  0.000000E+00  0.000000E+00
     931  5.165798E-01  7.541201E-03 -1.262923E-01  0.000000E+00  0.000000E+00  0.000000E+00  0.000000E+00  0.000000E+00  0.000000E+00  5.165798E-01  7.541201E-03 -1.262923E-01  0.000000E+00  0.000000E+00  0.000000E+00
     941  5.225054E-01  8.680051E-03 -1.282237E-01  0.000000E+00  0.000000E+00  0.000000E+00  0.000000E+00  0.000000E+00  0.000000E+00  5.225054E-01  8.680051E-03 -1.282237E-01  0.000000E+00  0.000000E+00  0.000000E+00
     951  5.290169E-01  9.852554E-03 -1.303122E-01  0.000000E+00  0.000000E+00  0.000000E+00  0.000000E+00  0.000000E+00  0.000000E+00  5.290169E-01  9.852554E-03 -1.303122E-01  0.000000E+00  0.000000E+00  0.000000E+00
     961  5.360766E-01  1.103757E-02 -1.326013E-01  0.000000E+00  0.000000E+00  0.000000E+00  0.000000E+00  0.000000E+00  0.000000E+00  5.360766E-01  1.103757E-02 -1.326013E-01  0.000000E+00  0.000000E+00  0.000000E+00
     971  5.436009E-01  1.220054E-02 -1.351084E-01  0.000000E+00  0.000000E+00  0.000000E+00  0.000000E+00  0.000000E+00  0.000000E+00  5.436009E-01  1.220054E-02 -1.351084E-01  0.000000E+00  0.000000E+00  0.000000E+00
     981  5.514578E-01  1.329712E-02 -1.378153E-01  0.000000E+00  0.000000E+00  0.000000E+00  0.000000E+00  0.000000E+00  0.000000E+00  5.514578E-01  1.329712E-02 -1.378153E-01  0.000000E+00  0.000000E+00  0.000000E+00
     991  5.594777E-01  1.427837E-02 -1.406687E-01  0.000000E+00  0.000000E+00  0.000000E+00  0.000000E+00  0.000000E+00  0.000000E+00  5.594777E-01  1.427837E-02 -1.406687E-01  0.000000E+00  0.000000E+00  0.000000E+00
    1001  5.674722E-01  1.509656E-02 -1.435905E-01  0.000000E+00  0.000000E+00  0.000000E+00  0.000000E+00  0.000000E+00  0.000000E+00  5.674722E-01  1.509656E-02 -1.435905E-01  0.000000E+00  0.000000E+00  0.000000E+00
    1011  5.752600E-01  1.571096E-02 -1.464940E-01  0.000000E+00  0.000000E+00  0.000000E+00  0.000000E+00  0.000000E+00  0.000000E+00  5.752600E-01  1.571096E-02 -1.464940E-01  0.000000E+00  0.000000E+00  0.000000E+00
    1021  5.826885E-01  1.609291E-02 -1.493003E-01  0.000000E+00  0.000000E+00  0.000000E+00  0.000000E+00  0.000000E+00  0.000000E+00  5.826885E-01  1.609291E-02 -1.493003E-01  0.000000E+00  0.000000E+00  0.000000E+00
    1031  5.896492E-01  1.622953E-02 -1.519513E-01  0.000000E+00  0.000000E+00  0.000000E+00  0.000000E+00  0.000000E+00  0.000000E+00  5.896492E-01  1.622953E-02 -1.519513E-01  0.000000E+00  0.000000E+00  0.000000E+00
    1041  5.960823E-01  1.612569E-02 -1.544155E-01  0.000000E+00  0.000000E+00  0.000000E+00  0.000000E+00  0.000000E+00  0.000000E+00  5.960823E-01  1.612569E-02 -1.544155E-01  0.000000E+00  0.000000E+00  0.000000E+00
    1051  6.019723E-01  1.580364E-02 -1.566872E-01  0.000000E+00  0.000000E+00  0.000000E+00  0.000000E+00  0.000000E+00  0.000000E+00  6.019723E-01  1.580364E-02 -1.566872E-01  0.000000E+00  0.000000E+00  0.000000E+00
    1061  6.073391E-01  1.530017E-02 -1.587806E-01  0.000000E+00  0.000000E+00  0.000000E+00  0.000000E+00  0.000000E+00  0.000000E+00  6.073391E-01  1.530017E-02 -1.587806E-01  0.000000E+00  0.000000E+00  0.000000E+00
    1071  6.122260E-01  1.466126E-02 -1.607210E-01  0.000000E+00  0.000000E+00  0.000000E+00  0.000000E+00  0.000000E+00  0.000000E+00  6.122260E-01  1.466126E-02 -1.607210E-01  0.000000E+00  0.000000E+00  0.000000E+00
    1081  6.166892E-01  1.393520E-02 -1.625357E-01  0.000000E+00  0.000000E+00  0.000000E+00  0.000000E+00  0.000000E+00  0.000000E+00  6.166892E-01  1.393520E-02 -1.625357E-01  0.000000E+00  0.000000E+00  0.000000E+00
    1091  6.207900E-01  1.316547E-02 -1.642466E-01  0.000000E+00  0.000000E+00  0.000000E+00  0.000000E+00  0.000000E+00  0.000000E+00  6.207900E-01  1.316547E-02 -1.642466E-01  0.000000E+00  0.000000E+00  0.000000E+00
    1101  6.245898E-01  1.238540E-02 -1.658656E-01  0.000000E+00  0.000000E+00  0.000000E+00  0.000000E+00  0.000000E+00  0.000000E+00  6.245898E-01  1.238540E-02 -1.658656E-01  0.000000E+00  0.000000E+00  0.000000E+00
    1111  6.281471E-01  1.161588E-02 -1.673943E-01  0.000000E+00  0.000000E+00  0.000000E+00  0.000000E+00  0.000000E+00  0.000000E+00  6.281471E-01  1.161588E-02 -1.673943E-01  0.000000E+00  0.000000E+00  0.000000E+00
    1121  6.315171E-01  1.086670E-02 -1.688259E-01  0.000000E+00  0.000000E+00  0.000000E+00  0.000000E+00  0.000000E+00  0.000000E+00  6.315171E-01  1.086670E-02 -1.688259E-01  0.000000E+00  0.000000E+00  0.000000E+00
    1131  6.347492E-01  1.014067E-02 -1.701505E-01  0.000000E+00  0.000000E+00  0.000000E+00  0.000000E+00  0.000000E+00  0.000000E+00  6.347492E-01  1.014067E-02 -1.701505E-01  0.000000E+00  0.000000E+00  0.000000E+00
    1141  6.378854E-01  9.438835E-03 -1.713594E-01  0.000000E+00  0.000000E+00  0.000000E+00  0.000000E+00  0.000000E+00  0.000000E+00  6.378854E-01  9.438835E-03 -1.713594E-01  0.000000E+00  0.000000E+00  0.000000E+00
    1151  6.409570E-01  8.764878E-03 -1.724504E-01  0.000000E+00  0.000000E+00  0.000000E+00  0.000000E+00  0.000000E+00  0.000000E+00  6.409570E-01  8.764878E-03 -1.724504E-01  0.000000E+00  0.000000E+00  0.000000E+00
    1161  6.439833E-01  8.127272E-03 -1.734290E-01  0.000000E+00  0.000000E+00  0.000000E+00  0.000000E+00  0.000000E+00  0.000000E+00  6.439833E-01  8.127272E-03 -1.734290E-01  0.000000E+00  0.000000E+00  0.000000E+00
    1171  6.469716E-01  7.538615E-03 -1.743092E-01  0.000000E+00  0.000000E+00  0.000000E+00  0.000000E+00  0.000000E+00  0.000000E+00  6.469716E-01  7.538615E-03 -1.743092E-01  0.000000E+00  0.000000E+00  0.000000E+00
    1181  6.499196E-01  7.012654E-03 -1.751107E-01  0.000000E+00  0.000000E+00  0.000000E+00  0.000000E+00  0.000000E+00  0.000000E+00  6.499196E-01  7.012654E-03 -1.751107E-01  0.000000E+00  0.000000E+00  0.000000E+00
    1191  6.528186E-01  6.560148E-03 -1.758557E-01  0.000000E+00  0.000000E+00  0.000000E+00  0.000000E+00  0.000000E+00  0.000000E+00  6.528186E-01  6.560148E-03 -1.758557E-01  0.000000E+00  0.000000E+00  0.000000E+00
    1201  6.556543E-01  6.184960E-03 -1.765640E-01  0.000000E+00  0.000000E+00  0.000000E+00  0.000000E+00  0.000000E+00  0.000000E+00  6.556543E-01  6.184960E-03 -1.765640E-01  0.000000E+00  0.000000E+00  0.000000E+00
    1211  6.584062E-01  5.881628E-03 -1.772496E-01  0.000000E+00  0.000000E+00  0.000000E+00  0.000000E+00  0.000000E+00  0.000000E+00  6.584062E-01  5.881628E-03 -1.772496E-01  0.000000E+00  0.000000E+00  0.000000E+00
    1221  6.610438E-01  5.635212E-03 -1.779176E-01  0.000000E+00  0.000000E+00  0.000000E+00  0.000000E+00  0.000000E+00  0.000000E+00  6.610438E-01  5.635212E-03 -1.779176E-01  0.000000E+00  0.000000E+00  0.000000E+00
    1231  6.635240E-01  5.423642E-03 -1.785627E-01  0.000000E+00  0.000000E+00  0.000000E+00  0.000000E+00  0.000000E+00  0.000000E+00  6.635240E-01  5.423642E-03 -1.785627E-01  0.000000E+00  0.000000E+00  0.000000E+00
    1241  6.657920E-01  5.222214E-03 -1.791705E-01  0.000000E+00  0.000000E+00  0.000000E+00  0.000000E+00  0.000000E+00  0.000000E+00  6.657920E-01  5.222214E-03 -1.791705E-01  0.000000E+00  0.000000E+00  0.000000E+00
    1251  6.677872E-01  5.009323E-03 -1.797197E-01  0.000000E+00  0.000000E+00  0.000000E+00  0.000000E+00  0.000000E+00  0.000000E+00  6.677872E-01  5.009323E-03 -1.797197E-01  0.000000E+00  0.000000E+00  0.000000E+00
    1261  6.694553E-01  4.772092E-03 -1.801869E-01  0.000000E+00  0.000000E+00  0.000000E+00  0.000000E+00  0.000000E+00  0.000000E+00  6.694553E-01  4.772092E-03 -1.801869E-01  0.000000E+00  0.000000E+00  0.000000E+00
    1271  6.707623E-01  4.510484E-03 -1.805507E-01  0.000000E+00  0.000000E+00  0.000000E+00  0.000000E+00  0.000000E+00  0.000000E+00  6.707623E-01  4.510484E-03 -1.805507E-01  0.000000E+00  0.000000E+00  0.000000E+00
    1281  6.717092E-01  4.238721E-03 -1.807972E-01  0.000000E+00  0.000000E+00  0.000000E+00  0.000000E+00  0.000000E+00  0.000000E+00  6.717092E-01  4.238721E-03 -1.807972E-01  0.000000E+00  0.000000E+00  0.000000E+00
    1291  6.723402E-01  3.983401E-03 -1.809237E-01  0.000000E+00  0.000000E+00  0.000000E+00  0.000000E+00  0.000000E+00  0.000000E+00  6.723402E-01  3.983401E-03 -1.809237E-01  0.000000E+00  0.000000E+00  0.000000E+00
    1301  6.727433E-01  3.778607E-03 -1.809416E-01  0.000000E+00  0.000000E+00  0.000000E+00  0.000000E+00  0.000000E+00  0.000000E+00  6.727433E-01  3.778607E-03 -1.809416E-01  0.000000E+00  0.000000E+00  0.000000E+00
    1311  6.730412E-01  3.659017E-03 -1.808769E-01  0.000000E+00  0.000000E+00  0.000000E+00  0.000000E+00  0.000000E+00  0.000000E+00  6.730412E-01  3.659017E-03 -1.808769E-01  0.000000E+00  0.000000E+00  0.000000E+00
    1321  6.733738E-01  3.652592E-03 -1.807683E-01  0.000000E+00  0.000000E+00  0.000000E+00  0.000000E+00  0.000000E+00  0.000000E+00  6.733738E-01  3.652592E-03 -1.807683E-01  0.000000E+00  0.000000E+00  0.000000E+00
    1331  6.738766E-01  3.774484E-03 -1.806641E-01  0.000000E+00  0.000000E+00  0.000000E+00  0.000000E+00  0.000000E+00  0.000000E+00  6.738766E-01  3.774484E-03 -1.806641E-01  0.000000E+00  0.000000E+00  0.000000E+00
    1341  6.746602E-01  4.023460E-03 -1.806159E-01  0.000000E+00  0.000000E+00  0.000000E+00  0.000000E+00  0.000000E+00  0.000000E+00  6.746602E-01  4.023460E-03 -1.806159E-01  0.000000E+00  0.000000E+00  0.000000E+00
    1351  6.757946E-01  4.381617E-03 -1.806730E-01  0.000000E+00  0.000000E+00  0.000000E+00  0.000000E+00  0.000000E+00  0.000000E+00  6.757946E-01  4.381617E-03 -1.806730E-01  0.000000E+00  0.000000E+00  0.000000E+00