 variables = x,y,"-cp"
 zone t="Cp_jmin_000"
  0.999950519027277      -7.190906577662312E-006 -0.308090607377023     
  0.999848425210164      -2.202786431364317E-005 -0.308626083199043     
  0.999739869675704      -3.780065359317234E-005 -0.308857741530301     
  0.999624444703074      -5.456621763246607E-005 -0.309104433760996     
  0.999501717822151      -7.239028412913358E-005 -0.309337213897289     
  0.999371229373061      -9.134159109748993E-005 -0.309571036147347     
  0.999232490696408      -1.114911082996622E-004 -0.309860293621629     
  0.999084982597171      -1.329138319585390E-004 -0.310171966863002     
  0.998928151520885      -1.556755472222239E-004 -0.310588210490766     
  0.998761411599954      -1.798608015831939E-004 -0.311047682770872     
  0.998584142577041      -2.055732787485144E-004 -0.311632673392865     
  0.998395683636583      -2.329088285446009E-004 -0.312208279899463     
  0.998195333020306      -2.619692394466767E-004 -0.312884778695365     
  0.997982345559863      -2.928625964649977E-004 -0.313549060750761     
  0.997755927276180      -3.256843802971508E-004 -0.314344928386790     
  0.997515236117857      -3.605419618973648E-004 -0.315114782165552     
  0.997259382938519      -3.975818247866957E-004 -0.316039153569708     
  0.996987423131747      -4.369534440111178E-004 -0.316922485413906     
  0.996698352306457      -4.788022252603622E-004 -0.317979495965881     
  0.996391104685071      -5.232824611467383E-004 -0.318978723463206     
  0.996064545310489      -5.705287757017173E-004 -0.320168015347459     
  0.995717469545085      -6.206793334300211E-004 -0.321282378825435     
  0.995348608774151      -6.739433404937623E-004 -0.322598762059539     
  0.994956618372158      -7.305472983714197E-004 -0.323820683364027     
  0.994540067843589      -7.906977726002855E-004 -0.325255222832303     
  0.994097440802924      -8.546137313532310E-004 -0.326571951682816     
  0.993627115299513      -9.224242087524622E-004 -0.328110721200165     
  0.993127386684681      -9.943626485937631E-004 -0.329507568380445     
  0.992596464885565      -1.070785363111593E-003 -0.331124990389413     
  0.992032440159447      -1.151973027089561E-003 -0.332579919291609     
  0.991433288916790      -1.238211753831788E-003 -0.334247674949275     
  0.990796845563836      -1.329639625047849E-003 -0.335734137970916     
  0.990120843598399      -1.426576958121088E-003 -0.337422747031545     
  0.989402909161396      -1.529527323952683E-003 -0.338898265564744     
  0.988640507745154      -1.638854165885872E-003 -0.340566360457982     
  0.987830936170727      -1.754773418841899E-003 -0.341994435441819     
  0.986971348521761      -1.877585647353976E-003 -0.343600700989389     
  0.986058776549836      -2.007870996242764E-003 -0.344930520335852     
  0.985090076270552      -2.146169626638874E-003 -0.346414703602663     
  0.984061878782684      -2.292691610911109E-003 -0.347601263240610     
  0.982970652698721      -2.447811032850026E-003 -0.348917366451896     
  0.981812729093725      -2.612298116371279E-003 -0.349893806805593     
  0.980584210328237      -2.786736062434320E-003 -0.350969453156945     
  0.979280925188388      -2.971262202179466E-003 -0.351692241198877     
  0.977898557719227      -3.166534808728978E-003 -0.352478000493103     
  0.976432621979564      -3.373612231559043E-003 -0.352848437166989     
  0.974878255807105      -3.592549695914168E-003 -0.353292677689122     
  0.973230431824570      -3.823950261951274E-003 -0.353285728068244     
  0.971483973629757      -4.069132613147735E-003 -0.353270584110394     
  0.969633266134774      -4.328118765340954E-003 -0.352838279125470     
  0.967672524401831      -4.601598941976932E-003 -0.352352868523809     
  0.965595797706436      -4.891000631062736E-003 -0.351370016405617     
  0.963396661946770      -5.196322023475735E-003 -0.350387011352657     
  0.961068558213988      -5.518593757245423E-003 -0.348836467632349     
  0.958604645181734      -5.858830942331594E-003 -0.347250438273652     
  0.955997710370829      -6.217413840325518E-003 -0.345146312755821     
  0.953240403573188      -6.595771835954957E-003 -0.342886494806366     
  0.950324929075312      -6.994133435052222E-003 -0.340214832372132     
  0.947243363824026      -7.413828030933448E-003 -0.337272044483955     
  0.943987401243017      -7.855348486410833E-003 -0.333999025294103     
  0.940548532638629      -8.319645947101835E-003 -0.330410050071265     
  0.936918012072206      -8.807758307222305E-003 -0.326513161819583     
  0.933086820659709      -9.320470120943454E-003 -0.322301631298806     
  0.929045729434505      -9.858610535367778E-003 -0.317820137230461     
  0.924785335229135      -1.042319342430887E-002 -0.313006027036081     
  0.920296001506855      -1.101473943138070E-002 -0.308001963484964     
  0.915568017057546      -1.163428261837557E-002 -0.302655874661374     
  0.910591518904826      -1.228247798053474E-002 -0.297161351040622     
  0.905356539043862      -1.295968439299040E-002 -0.291438291574405     
  0.899853259637222      -1.366754916491486E-002 -0.285455901906257     
  0.894071612625420      -1.440553140223065E-002 -0.279499197885863     
  0.888001926144578      -1.517548130265305E-002 -0.273123444835306     
  0.881634354807102      -1.597666973363707E-002 -0.266955934157250     
  0.874959361825577      -1.680904248481468E-002 -0.260518266549390     
  0.867968048991337      -1.767527645861696E-002 -0.254041808737610     
  0.860651278709354      -1.857306609199097E-002 -0.247639401262274     
  0.853000640736535      -1.950219720676840E-002 -0.241243050848511     
  0.845008605117864      -2.046510145424237E-002 -0.234761560328243     
  0.836667790252263      -2.146004270692975E-002 -0.228481569483148     
  0.827971583017262      -2.248531546583624E-002 -0.222241552683124     
  0.818914520771597      -2.354162889368912E-002 -0.216162317453468     
  0.809492049394791      -2.462921101698074E-002 -0.210122471299028     
  0.799700455259611      -2.574622884337473E-002 -0.204286144329624     
  0.789537101723147      -2.688979892317225E-002 -0.198671776264492     
  0.779000884847340      -2.805910063978264E-002 -0.193254718881561     
  0.768092166110161      -2.925391921276573E-002 -0.188002297325994     
  0.756812605590837      -3.047225173673933E-002 -0.182989562338025     
  0.745165431436640      -3.171185038487789E-002 -0.178165106660945     
  0.733155517081819      -3.297015436139106E-002 -0.173547068060448     
  0.720789313138657      -3.424288317751308E-002 -0.169282429654976     
  0.708075228679919      -3.552715818510261E-002 -0.165246680345090     
  0.695023651807421      -3.682132624975259E-002 -0.161460793675229     
  0.681646664067578      -3.812190665922779E-002 -0.157946917960019     
  0.667958216944580      -3.942518053748910E-002 -0.154665976454540     
  0.653974122495646      -4.072720085239104E-002 -0.151664469606092     
  0.639712022977305      -4.202380569099960E-002 -0.148901469611803     
  0.625191338641408      -4.331063511566653E-002 -0.146416850243951     
  0.610433193276417      -4.458315186273348E-002 -0.144164372886586     
  0.595460317506291      -4.583666607350885E-002 -0.142229579609384     
  0.580296930324363      -4.706636415496987E-002 -0.140676175769665     
  0.564968599819307      -4.826734175769536E-002 -0.139513365792181     
  0.549502084529173      -4.943464073421587E-002 -0.138743998647337     
  0.533925157321317      -5.056328980674282E-002 -0.138362001043950     
  0.518266414124252      -5.164834853448222E-002 -0.138393223283221     
  0.502555070216149      -5.268495403348877E-002 -0.138825602686262     
  0.486820747089359      -5.366836977267452E-002 -0.139707107975287     
  0.471093253148793      -5.459403565457564E-002 -0.141019204242432     
  0.455402361654779      -5.545761849489572E-002 -0.142830316892987     
  0.439777589382362      -5.625506194609634E-002 -0.145114273025590     
  0.424247979436614      -5.698263487182718E-002 -0.147958258581316     
  0.408841891539178      -5.763697717396151E-002 -0.151327032416619     
  0.393586802890281      -5.821514210420231E-002 -0.155324619964804     
  0.378509122421679      -5.871463415791518E-002 -0.159904910042967     
  0.363634020900931      -5.913344174779431E-002 -0.165186435119010     
  0.348985278939855      -5.947006398655323E-002 -0.171109841528996     
  0.334585154514924      -5.972353106721210E-002 -0.177805313880211     
  0.320454271140270      -5.989341791193621E-002 -0.185196832552122     
  0.306611527360006      -5.997985096032882E-002 -0.193423024674603     
  0.293074027759710      -5.998350817985559E-002 -0.202382461112259     
  0.279857050150588      -5.990444954595020E-002 -0.212211597555540     
  0.266974071532946      -5.974115934648087E-002 -0.223055255996316     
  0.254436687765421      -5.949619235958110E-002 -0.234787301711385     
  0.242254590418352      -5.917462021453175E-002 -0.247380535042878     
  0.230435657346581      -5.877950174230472E-002 -0.260911423887976     
  0.218985981513271      -5.831432783584997E-002 -0.275224508766546     
  0.207909927033704      -5.778299083409870E-002 -0.290430551223362     
  0.197210195764651      -5.718975405655877E-002 -0.306330780744539     
  0.186888097128887      -5.653653269590260E-002 -0.322938627579990     
  0.176944048773137      -5.581915391915332E-002 -0.340695467066276     
  0.167376450190071      -5.504393444449614E-002 -0.358874347066878     
  0.158181839537788      -5.422373560443759E-002 -0.377605430878083     
  0.149356008845020      -5.336402775436868E-002 -0.396552100222630     
  0.140894531792397      -5.246270433945201E-002 -0.415845826935646     
  0.132792572598136      -5.151527099780620E-002 -0.435574076984447     
  0.125042648529722      -5.053348438269398E-002 -0.454980928439345     
  0.117635874536503      -4.953175995552651E-002 -0.473840976986230     
  0.110566120219504      -4.849957833915088E-002 -0.492777061648539     
  0.103825710313917      -4.743559307191336E-002 -0.510901546527005     
  9.740302246356181E-002 -4.636046448358892E-002 -0.527651736582093     
  9.128993515794470E-002 -4.526959883528320E-002 -0.543801661476895     
  8.547868265721659E-002 -4.415662563251337E-002 -0.558524453673233     
  7.995619932694853E-002 -4.304174403757182E-002 -0.570978011613066     
  7.471505784356669E-002 -4.191565216614326E-002 -0.582571001552799     
  6.974632251942237E-002 -4.077646030434248E-002 -0.591502574764323     
  6.503603862677809E-002 -3.964424687098558E-002 -0.597966927825827     
  6.057856107812076E-002 -3.850377417336122E-002 -0.603123871862179     
  5.636080767509588E-002 -3.736914404653564E-002 -0.603888762207080     
  5.237588258684633E-002 -3.623316124696991E-002 -0.604153441744757     
  4.861410553994727E-002 -3.509722737101816E-002 -0.599393815929413     
  4.506419764092662E-002 -3.397080608324016E-002 -0.593684007568508     
  4.171874950925059E-002 -3.284883862407187E-002 -0.583393069483952     
  3.856790851486247E-002 -3.173650925395256E-002 -0.571523557434107     
  3.560346516272939E-002 -3.063303656780824E-002 -0.555410130780646     
  3.281757752056591E-002 -2.953898224397961E-002 -0.537619961836775     
  3.020058692334526E-002 -2.845835883391527E-002 -0.515541870358099     
  2.774746245235360E-002 -2.738664697764612E-002 -0.492224470041169     
  2.544607444234526E-002 -2.633330383948955E-002 -0.464322667370858     
  2.329535049163844E-002 -2.528815401523145E-002 -0.435848652153027     
  2.128592513596894E-002 -2.425446633946177E-002 -0.402798417202294     
  1.940874743989363E-002 -2.324054043858789E-002 -0.369129476784086     
  1.766335891244597E-002 -2.223383174114062E-002 -0.332010346934810     
  1.603176836942877E-002 -2.125649773259790E-002 -0.293394287353022     
  1.452243875938164E-002 -2.028562863836164E-002 -0.252923209859695     
  1.311916283017667E-002 -1.933635596839932E-002 -0.210309702479500     
  1.181952386836871E-002 -1.840781632522546E-002 -0.166532854633647     
  1.062806782822701E-002 -1.748513233492494E-002 -0.121299539785579     
  9.514649837480404E-003 -1.660112649992002E-002 -7.447244312420365E-002
  8.499029381182965E-003 -1.572832721528210E-002 -2.724450571408488E-002
  7.579991635020211E-003 -1.486138387836461E-002  2.135172118484951E-002
  6.717937280030006E-003 -1.403936822746698E-002  7.040463715026002E-002
  5.940354364939227E-003 -1.323182896156102E-002  0.120262185138363     
  5.249809497187674E-003 -1.243113450084882E-002  0.169919178533985     
  4.606505349093348E-003 -1.166981336097379E-002  0.220426704232937     
  4.019084760469083E-003 -1.093876117669639E-002  0.270860231179659     
  3.510512539861677E-003 -1.021691714003041E-002  0.321215914294614     
  3.057634082064498E-003 -9.517637515266138E-003  0.370852095846537     
  2.631117457770227E-003 -8.859062615407042E-003  0.421043684413698     
  2.251275171854528E-003 -8.226930114444621E-003  0.470970230852371     
  1.938279788374575E-003 -7.607223007985909E-003  0.520166671366856     
  1.666444256633093E-003 -7.011216243201864E-003  0.568076423537694     
  1.410520706634499E-003 -6.450096929293438E-003  0.616611270659530     
  1.169595613052854E-003 -5.921862137244775E-003  0.664258211246894     
  9.714139556434853E-004 -5.414313495089066E-003  0.712304511712705     
  8.250585825617662E-004 -4.922097709573018E-003  0.757646424660390     
  6.988865456272197E-004 -4.454648652672559E-003  0.803136084783088     
  5.801392403548267E-004 -4.014707147346485E-003  0.847973452071443     
  4.683858810181629E-004 -3.600677195095761E-003  0.893055475908984     
  3.632199696889105E-004 -3.211052780183306E-003  0.937381605314098     
  2.743133056950509E-004 -2.842623994983526E-003  0.981757328592142     
  2.210749553935853E-004 -2.490532946816359E-003   1.02448597555725     
  1.913459007185647E-004 -2.155618528247178E-003   1.06574122169537     
  1.633742378795988E-004 -1.840502111041751E-003   1.10694235978454     
  1.370570834159368E-004 -1.544024655503801E-003   1.14820918823896     
  1.122974612960403E-004 -1.265093672432821E-003   1.18883291368208     
  8.900397712352515E-005 -1.002679552866129E-003   1.22976696063111     
  6.709050874131872E-005 -7.558120825648265E-004   1.26998741049455     
  4.647591259843153E-005 -5.235771340711596E-004   1.31054774554645     
  2.708374524285073E-005 -3.051135291669230E-004   1.35042722440002     
  8.841999307285242E-006 -9.961006461039270E-005   1.39048505799225     
  8.841999307285242E-006  9.961006461028181E-005   1.42995774381567     
  2.708374524285073E-005  3.051135291667098E-004   1.46822639150049     
  4.647591259843153E-005  5.235771340709393E-004   1.50817105938589     
  6.709050874131872E-005  7.558120825646010E-004   1.54947976248247     
  8.900397712352515E-005  1.002679552865986E-003   1.59171175594952     
  1.122974612960403E-004  1.265093672432764E-003   1.63584617720951     
  1.370570834159368E-004  1.544024655503732E-003   1.68103330174597     
  1.633742378795988E-004  1.840502111041621E-003   1.72837797318440     
  1.913459007184537E-004  2.155618528247007E-003   1.77709533625657     
  2.210749553934743E-004  2.490532946816264E-003   1.82792145952750     
  2.743133056950509E-004  2.842623994983483E-003   1.88005346578097     
  3.632199696889105E-004  3.211052780183224E-003   1.93052333516939     
  4.683858810181629E-004  3.600677195095709E-003   1.98204863917417     
  5.801392403548267E-004  4.014707147346560E-003   2.03641754805116     
  6.988865456272197E-004  4.454648652672678E-003   2.09260748900827     
  8.250585825617662E-004  4.922097709573131E-003   2.15172707612038     
  9.714139556435963E-004  5.414313495089258E-003   2.21239033312037     
  1.169595613053076E-003  5.921862137244993E-003   2.27308126987428     
  1.410520706634721E-003  6.450096929293682E-003   2.32964480862195     
  1.666444256633204E-003  7.011216243202129E-003   2.39183403802234     
  1.938279788374575E-003  7.607223007986173E-003   2.45521831772845     
  2.251275171854639E-003  8.226930114444923E-003   2.52167008067385     
  2.631117457770449E-003  8.859062615407375E-003   2.58315610844349     
  3.057634082064720E-003  9.517637515266467E-003   2.64385519710542     
  3.510512539861899E-003  1.021691714003073E-002   2.70812443243191     
  4.019084760469305E-003  1.093876117669672E-002   2.77448025146939     
  4.606505349093681E-003  1.166981336097417E-002   2.83348314176509     
  5.249809497188118E-003  1.243113450084921E-002   2.89220192728184     
  5.940354364939671E-003  1.323182896156143E-002   2.95350707233449     
  6.717937280030450E-003  1.403936822746736E-002   3.01375913013215     
  7.579991635020655E-003  1.486138387836498E-002   3.06204256055068     
  8.499029381183409E-003  1.572832721528245E-002   3.11710969480344     
  9.514649837480849E-003  1.660112649992034E-002   3.16976923772990     
  1.062806782822745E-002  1.748513233492523E-002   3.20822849849546     
  1.181952386836915E-002  1.840781632522574E-002   3.25329791926481     
  1.311916283017700E-002  1.933635596839959E-002   3.29216018618536     
  1.452243875938186E-002  2.028562863836187E-002   3.31985962009461     
  1.603176836942910E-002  2.125649773259813E-002   3.35305036009200     
  1.766335891244641E-002  2.223383174114088E-002   3.37123414667917     
  1.940874743989407E-002  2.324054043858812E-002   3.38878445822944     
  2.128592513596939E-002  2.425446633946199E-002   3.40288107986891     
  2.329535049163889E-002  2.528815401523170E-002   3.40212850778922     
  2.544607444234570E-002  2.633330383948980E-002   3.40773777894087     
  2.774746245235415E-002  2.738664697764639E-002   3.39141565260040     
  3.020058692334593E-002  2.845835883391554E-002   3.38245581459721     
  3.281757752056658E-002  2.953898224397986E-002   3.35539181789819     
  3.560346516273005E-002  3.063303656780848E-002   3.33093055320498     
  3.856790851486314E-002  3.173650925395279E-002   3.29403466014388     
  4.171874950925125E-002  3.284883862407208E-002   3.25745908121738     
  4.506419764092739E-002  3.397080608324039E-002   3.21048795589482     
  4.861410553994816E-002  3.509722737101842E-002   3.16438815915278     
  5.237588258684733E-002  3.623316124697021E-002   3.10649993789261     
  5.636080767509699E-002  3.736914404653596E-002   3.05266597017655     
  6.057856107812187E-002  3.850377417336152E-002   2.98431801569387     
  6.503603862677920E-002  3.964424687098586E-002   2.92144248544889     
  6.974632251942359E-002  4.077646030434276E-002   2.84826362216664     
  7.471505784356791E-002  4.191565216614354E-002   2.77531709307026     
  7.995619932694975E-002  4.304174403757209E-002   2.70109368195464     
  8.547868265721803E-002  4.415662563251363E-002   2.61942719206229     
  9.128993515794637E-002  4.526959883528348E-002   2.54167158672319     
  9.740302246356347E-002  4.636046448358921E-002   2.46010823080867     
  0.103825710313919       4.743559307191365E-002   2.37685483930400     
  0.110566120219506       4.849957833915118E-002   2.29605797487729     
  0.117635874536505       4.953175995552680E-002   2.21503520978980     
  0.125042648529724       5.053348438269425E-002   2.13177447648736     
  0.132792572598138       5.151527099780649E-002   2.05285572045037     
  0.140894531792399       5.246270433945228E-002   1.97549122556044     
  0.149356008845023       5.336402775436895E-002   1.89834690274144     
  0.158181839537791       5.422373560443786E-002   1.82282419092880     
  0.167376450190074       5.504393444449639E-002   1.75126226177374     
  0.176944048773140       5.581915391915356E-002   1.68219434297215     
  0.186888097128891       5.653653269590281E-002   1.61627583725625     
  0.197210195764654       5.718975405655896E-002   1.55061747701779     
  0.207909927033707       5.778299083409888E-002   1.48858032358356     
  0.218985981513274       5.831432783585012E-002   1.42949445271309     
  0.230435657346584       5.877950174230485E-002   1.37342874783245     
  0.242254590418356       5.917462021453186E-002   1.32000545006691     
  0.254436687765425       5.949619235958120E-002   1.26922159248535     
  0.266974071532951       5.974115934648094E-002   1.22067330643778     
  0.279857050150593       5.990444954595026E-002   1.17438155467804     
  0.293074027759714       5.998350817985563E-002   1.12929294932109     
  0.306611527360011       5.997985096032882E-002   1.08642385807376     
  0.320454271140275       5.989341791193618E-002   1.04549708929006     
  0.334585154514929       5.972353106721202E-002   1.00645172548382     
  0.348985278939860       5.947006398655311E-002  0.969044817129614     
  0.363634020900936       5.913344174779415E-002  0.933289357413353     
  0.378509122421684       5.871463415791503E-002  0.899010490197271     
  0.393586802890286       5.821514210420214E-002  0.866161843105421     
  0.408841891539183       5.763697717396130E-002  0.834640030253589     
  0.424247979436620       5.698263487182694E-002  0.804307951593344     
  0.439777589382368       5.625506194609606E-002  0.775131345246306     
  0.455402361654785       5.545761849489542E-002  0.747013750616270     
  0.471093253148799       5.459403565457532E-002  0.719957072772195     
  0.486820747089365       5.366836977267417E-002  0.693921929397390     
  0.502555070216155       5.268495403348840E-002  0.668821260046014     
  0.518266414124258       5.164834853448182E-002  0.644640792940067     
  0.533925157321323       5.056328980674243E-002  0.621291668811625     
  0.549502084529179       4.943464073421546E-002  0.598751849377608     
  0.564968599819313       4.826734175769493E-002  0.576937845261722     
  0.580296930324369       4.706636415496942E-002  0.555814795973215     
  0.595460317506297       4.583666607350841E-002  0.535303809923436     
  0.610433193276423       4.458315186273303E-002  0.515357059223257     
  0.625191338641413       4.331063511566605E-002  0.495899558913206     
  0.639712022977310       4.202380569099910E-002  0.476872475591877     
  0.653974122495652       4.072720085239055E-002  0.458205094474556     
  0.667958216944586       3.942518053748860E-002  0.439830821376101     
  0.681646664067583       3.812190665922729E-002  0.421685667744566     
  0.695023651807426       3.682132624975208E-002  0.403695747708987     
  0.708075228679924       3.552715818510210E-002  0.385814416986721     
  0.720789313138662       3.424288317751254E-002  0.367917254835278     
  0.733155517081824       3.297015436139052E-002  0.349981485605317     
  0.745165431436645       3.171185038487738E-002  0.331414466002875     
  0.756812605590841       3.047225173673885E-002  0.312901948757777     
  0.768092166110165       2.925391921276525E-002  0.294148124544665     
  0.779000884847344       2.805910063978216E-002  0.275213914880262     
  0.789537101723151       2.688979892317177E-002  0.255997126950699     
  0.799700455259615       2.574622884337426E-002  0.236492741782131     
  0.809492049394795       2.462921101698028E-002  0.216200478945851     
  0.818914520771601       2.354162889368867E-002  0.195608788599888     
  0.827971583017265       2.248531546583579E-002  0.174807144398747     
  0.836667790252267       2.146004270692930E-002  0.153721549340559     
  0.845008605117867       2.046510145424194E-002  0.132107529350446     
  0.853000640736538       1.950219720676798E-002  0.110017279642139     
  0.860651278709357       1.857306609199058E-002  8.797250566992254E-002
  0.867968048991340       1.767527645861659E-002  6.581203064436081E-002
  0.874959361825580       1.680904248481432E-002  4.294659459714678E-002
  0.881634354807105       1.597666973363673E-002  2.044719831976183E-002
  0.888001926144580       1.517548130265273E-002 -1.918602834626082E-003
  0.894071612625422       1.440553140223034E-002 -2.478800121590652E-002
  0.899853259637224       1.366754916491456E-002 -4.686804526719568E-002
  0.905356539043864       1.295968439299011E-002 -6.903677620742465E-002
  0.910591518904828       1.228247798053446E-002 -9.078553622183660E-002
  0.915568017057548       1.163428261837529E-002 -0.111878330418704     
  0.920296001506857       1.101473943138043E-002 -0.132883568474416     
  0.924785335229137       1.042319342430861E-002 -0.152793031716187     
  0.929045729434507       9.858610535367525E-003 -0.172496261772991     
  0.933086820659711       9.320470120943211E-003 -0.191043685972763     
  0.936918012072208       8.807758307222070E-003 -0.209108284981066     
  0.940548532638631       8.319645947101609E-003 -0.226018918353881     
  0.943987401243019       7.855348486410615E-003 -0.242275867572974     
  0.947243363824028       7.413828030933243E-003 -0.257318897560539     
  0.950324929075314       6.994133435052048E-003 -0.271634825359468     
  0.953240403573190       6.595771835954800E-003 -0.284756674461688     
  0.955997710370830       6.217413840325344E-003 -0.296927726162845     
  0.958604645181736       5.858830942331399E-003 -0.308140956937537     
  0.961068558213989       5.518593757245211E-003 -0.318094088323669     
  0.963396661946771       5.196322023475506E-003 -0.327400613286369     
  0.965595797706437       4.891000631062511E-003 -0.335249334661319     
  0.967672524401832       4.601598941976731E-003 -0.342599671745949     
  0.969633266134775       4.328118765340781E-003 -0.348598142068267     
  0.971483973629758       4.069132613147574E-003 -0.353955617450213     
  0.973230431824571       3.823950261951115E-003 -0.358233408143314     
  0.974878255807106       3.592549695914026E-003 -0.361925296077298     
  0.976432621979565       3.373612231558908E-003 -0.364455062722906     
  0.977898557719228       3.166534808728841E-003 -0.366689729339112     
  0.979280925188389       2.971262202179325E-003 -0.367803836228222     
  0.980584210328237       2.786736062434180E-003 -0.368624626519540     
  0.981812729093726       2.612298116371144E-003 -0.368539321196907     
  0.982970652698722       2.447811032849902E-003 -0.368264344893594     
  0.984061878782685       2.292691610910997E-003 -0.367112276785270     
  0.985090076270553       2.146169626638764E-003 -0.365912870000511     
  0.986058776549837       2.007870996242638E-003 -0.363968716192148     
  0.986971348521762       1.877585647353850E-003 -0.362066662858499     
  0.987830936170728       1.754773418841784E-003 -0.359485122535078     
  0.988640507745155       1.638854165885759E-003 -0.357068200731442     
  0.989402909161397       1.529527323952571E-003 -0.354084059947153     
  0.990120843598400       1.426576958120972E-003 -0.351337500723052     
  0.990796845563837       1.329639625047739E-003 -0.348102817977332     
  0.991433288916791       1.238211753831686E-003 -0.345182691523471     
  0.992032440159447       1.151973027089460E-003 -0.341876376468841     
  0.992596464885566       1.070785363111486E-003 -0.338948422195831     
  0.993127386684681       9.943626485936540E-004 -0.335688782271503     
  0.993627115299514       9.224242087523592E-004 -0.332868819824728     
  0.994097440802925       8.546137313531353E-004 -0.329779990159564     
  0.994540067843590       7.906977726001834E-004 -0.327173534250764     
  0.994956618372159       7.305472983713144E-004 -0.324361349857194     
  0.995348608774152       6.739433404936558E-004 -0.322035417919087     
  0.995717469545086       6.206793334299079E-004 -0.319565443576975     
  0.996064545310490       5.705287757016100E-004 -0.317579288723902     
  0.996391104685072       5.232824611466228E-004 -0.315496854339502     
  0.996698352306458       4.788022252602527E-004 -0.313885914029606     
  0.996987423131748       4.369534440110160E-004 -0.312212979012283     
  0.997259382938520       3.975818247865938E-004 -0.310981594719150     
  0.997515236117858       3.605419618972581E-004 -0.309717459710978     
  0.997755927276181       3.256843802970459E-004 -0.308853278985986     
  0.997982345559864       2.928625964649020E-004 -0.307975573337842     
  0.998195333020307       2.619692394465794E-004 -0.307447376342942     
  0.998395683636583       2.329088285444983E-004 -0.306916220508359     
  0.998584142577042       2.055732787484207E-004 -0.306674192515007     
  0.998761411599955       1.798608015831094E-004 -0.306433751841984     
  0.998928151520886       1.556755472221381E-004 -0.306418719740204     
  0.999084982597171       1.329138319584505E-004 -0.306402864899798     
  0.999232490696409       1.114911082995802E-004 -0.306548866852268     
  0.999371229373062       9.134159109742271E-005 -0.306687323716063     
  0.999501717822152       7.239028412906411E-005 -0.306929565824848     
  0.999624444703074       5.456621763239993E-005 -0.307148333558277     
  0.999739869675705       3.780065359310569E-005 -0.307443982522936     
  0.999848425210164       2.202786431357840E-005 -0.307648635502621     
  0.999950519027277       7.190906577634323E-006 -0.308089542658433     
