 variables=iter,pressure,tk,tw
 zone t="error", f=point
       1,  0.000000,  0.000000,  0.000000
      11, -0.135339,  0.009736, -0.001395
      21, -0.218663,  0.075177,  0.012862
      31, -0.241489,  0.236217,  0.024482
      41, -0.256824,  0.467142,  0.029988
      51, -0.264030,  0.598543,  0.027349
      61, -0.274375,  0.695497,  0.017658
      71, -0.285415,  0.772933,  0.003461
      81, -0.289843,  0.835965, -0.014040
      91, -0.286007,  0.888035, -0.033350
     101, -0.278050,  0.932142, -0.053071
     111, -0.271135,  0.971038, -0.072246
     121, -0.266578,  1.006950, -0.090401
     131, -0.263789,  1.041365, -0.107317
     141, -0.264404,  1.074931, -0.122795
     151, -0.269895,  1.107644, -0.136500
     161, -0.280076,  1.139131, -0.148154
     171, -0.293405,  1.168966, -0.157845
     181, -0.307150,  1.196936, -0.166398
     191, -0.319508,  1.222988, -0.175403
     201, -0.330875,  1.247076, -0.186494
     211, -0.342408,  1.269014, -0.200014
     221, -0.354256,  1.288402, -0.214273
     231, -0.365195,  1.304723, -0.227534
     241, -0.374002,  1.317682, -0.238635
     251, -0.380743,  1.327630, -0.247256
     261, -0.386416,  1.335675, -0.253524
     271, -0.391786,  1.343221, -0.257693
     281, -0.397007,  1.351406, -0.260072
     291, -0.402115,  1.360759, -0.261066
     301, -0.407347,  1.371174, -0.261078
     311, -0.412920,  1.382081, -0.260537
     321, -0.418761,  1.392820, -0.259785
     331, -0.424613,  1.403016, -0.259028
     341, -0.430300,  1.412720, -0.258350
     351, -0.435838,  1.422310, -0.257810
     361, -0.441297,  1.432166, -0.257431
     371, -0.446583,  1.442445, -0.257223
     381, -0.451505,  1.453095, -0.257060
     391, -0.456025,  1.464018, -0.256938
     401, -0.460345,  1.475201, -0.256800
     411, -0.464716,  1.486763, -0.256489
     421, -0.469274,  1.498867, -0.255859
     431, -0.474073,  1.511585, -0.254844
     441, -0.479157,  1.524865, -0.253518
     451, -0.484533,  1.538562, -0.252038
     461, -0.490132,  1.552531, -0.250544
     471, -0.495766,  1.566646, -0.249155
     481, -0.501073,  1.580806, -0.247952
     491, -0.505567,  1.594892, -0.247003
     501, -0.509022,  1.608789, -0.246384
     511, -0.512083,  1.622423, -0.246145
     521, -0.516154,  1.635801, -0.246264
     531, -0.522099,  1.648967, -0.246683
     541, -0.529256,  1.661941, -0.247347
     551, -0.536193,  1.674706, -0.248243
     561, -0.542144,  1.687219, -0.249343
     571, -0.547368,  1.699455, -0.250601
     581, -0.552473,  1.711402, -0.251960
     591, -0.557753,  1.723061, -0.253389
     601, -0.563049,  1.734451, -0.254900
     611, -0.568026,  1.745601, -0.256550
     621, -0.572532,  1.756543, -0.258405
     631, -0.576757,  1.767312, -0.260510
     641, -0.581103,  1.777942, -0.262847
     651, -0.585935,  1.788473, -0.265314
     661, -0.591414,  1.798947, -0.267716
     671, -0.597476,  1.809393, -0.269821
     681, -0.603864,  1.819790, -0.271472
     691, -0.610221,  1.830018, -0.272724
     701, -0.616332,  1.839841, -0.273948
     711, -0.622366,  1.848953, -0.275789
     721, -0.628699,  1.857098, -0.278945
     731, -0.635442,  1.864206, -0.283838
     741, -0.642334,  1.870457, -0.290406
     751, -0.649102,  1.876219, -0.298162
     761, -0.655670,  1.881914, -0.306458
     771, -0.662028,  1.887925, -0.314746
     781, -0.668137,  1.894577, -0.322667
     791, -0.673987,  1.902130, -0.330003
     801, -0.679633,  1.910733, -0.336671
     811, -0.685170,  1.920377, -0.342716
     821, -0.690708,  1.930905, -0.348323
     831, -0.696325,  1.942096, -0.353722
     841, -0.702029,  1.953746, -0.359135
     851, -0.707759,  1.965722, -0.364739
     861, -0.713422,  1.977964, -0.370664
     871, -0.718924,  1.990476, -0.376966
     881, -0.724198,  2.003297, -0.383651
     891, -0.729211,  2.016480, -0.390689
     901, -0.733977,  2.030075, -0.398021
     911, -0.738553,  2.044113, -0.405573
     921, -0.743041,  2.058611, -0.413258
     931, -0.747581,  2.073571, -0.421006
     941, -0.752321,  2.088986, -0.428797
     951, -0.757351,  2.104826, -0.436626
     961, -0.762651,  2.121105, -0.444475
     971, -0.768118,  2.137824, -0.452363
     981, -0.773626,  2.154987, -0.460303
     991, -0.779086,  2.172519, -0.468381
    1001, -0.784437,  2.190473, -0.476525
    1011, -0.789614,  2.208857, -0.484703
    1021, -0.794517,  2.227609, -0.492961
    1031, -0.799014,  2.246751, -0.501249
    1041, -0.802983,  2.266264, -0.509578
    1051, -0.806437,  2.286080, -0.518039
    1061, -0.809677,  2.306187, -0.526645
    1071, -0.813320,  2.326607, -0.535412
    1081, -0.818022,  2.347331, -0.544373
    1091, -0.823962,  2.368366, -0.553592
    1101, -0.830560,  2.389758, -0.563048
    1111, -0.836810,  2.411475, -0.572775
    1121, -0.842011,  2.433198, -0.582778
    1131, -0.846181,  2.454858, -0.593015
    1141, -0.849756,  2.476686, -0.603312
    1151, -0.853027,  2.498649, -0.613637
    1161, -0.855891,  2.520774, -0.623878
    1171, -0.858043,  2.543169, -0.633965
    1181, -0.859362,  2.565852, -0.643831
    1191, -0.860188,  2.588828, -0.653407
    1201, -0.861260,  2.612085, -0.662659
    1211, -0.863349,  2.635584, -0.671493
    1221, -0.866884,  2.659309, -0.679881
    1231, -0.871809,  2.683287, -0.687743
    1241, -0.877694,  2.707375, -0.695058
    1251, -0.883954,  2.731745, -0.701795
    1261, -0.890042,  2.756428, -0.707979
    1271, -0.895555,  2.781451, -0.713767
    1281, -0.900282,  2.806835, -0.719215
    1291, -0.904206,  2.832515, -0.724391
    1301, -0.907434,  2.858397, -0.729425
    1311, -0.910106,  2.884508, -0.734477
    1321, -0.912345,  2.911007, -0.739696
    1331, -0.914291,  2.937872, -0.745141
    1341, -0.916181,  2.965063, -0.750809
    1351, -0.918355,  2.992561, -0.756650
    1361, -0.921131,  3.020290, -0.762565
    1371, -0.924603,  3.048087, -0.768430
    1381, -0.928493,  3.076012, -0.774093
    1391, -0.932189,  3.104023, -0.779496
    1401, -0.935036,  3.131919, -0.784482
    1411, -0.936770,  3.159719, -0.788893
    1421, -0.937804,  3.187462, -0.792665
    1431, -0.939061,  3.215025, -0.795815
    1441, -0.941392,  3.242344, -0.798466
    1451, -0.944910,  3.269529, -0.800746
    1461, -0.948671,  3.296462, -0.802878
    1471, -0.951036,  3.323074, -0.805108
    1481, -0.950688,  3.349466, -0.807652
    1491, -0.947745,  3.375546, -0.810679
    1501, -0.944065,  3.401228, -0.814273
    1511, -0.942446,  3.426593, -0.818411
    1521, -0.945385,  3.451594, -0.823003
    1531, -0.954090,  3.476203, -0.827855
    1541, -0.967957,  3.500371, -0.832896
    1551, -0.984417,  3.524089, -0.837982
    1561, -0.999311,  3.547383, -0.842952
    1571, -1.008131,  3.570290, -0.847692
    1581, -1.008018,  3.592791, -0.852116
    1591, -0.999195,  3.615048, -0.856175
    1601, -0.984560,  3.637208, -0.859865
    1611, -0.967990,  3.659369, -0.863222
    1621, -0.952939,  3.681603, -0.866320
    1631, -0.941914,  3.703744, -0.869284
    1641, -0.936469,  3.725900, -0.872155
    1651, -0.937307,  3.748053, -0.875013
    1661, -0.944298,  3.769892, -0.877953
    1671, -0.956459,  3.791432, -0.880997
    1681, -0.971952,  3.812576, -0.884212
    1691, -0.988281,  3.832961, -0.887776
    1701, -1.002765,  3.852479, -0.891814
    1711, -1.013141,  3.871007, -0.896479
    1721, -1.017971,  3.888391, -0.901949
    1731, -1.016699,  3.904497, -0.908402
    1741, -1.009614,  3.918993, -0.916019
    1751, -0.997876,  3.932297, -0.924744
    1761, -0.983362,  3.943958, -0.934753
    1771, -0.968143,  3.954713, -0.945612
    1781, -0.953891,  3.964921, -0.956926
    1791, -0.941642,  3.975089, -0.968620
    1801, -0.932032,  3.985642, -0.980670
    1811, -0.925656,  3.996959, -0.992978
    1821, -0.923155,  4.009017, -1.005414
    1831, -0.924879,  4.021786, -1.017525
    1841, -0.930356,  4.035633, -1.029390
    1851, -0.937971,  4.050892, -1.040636
    1861, -0.945234,  4.067698, -1.050841
    1871, -0.949717,  4.086015, -1.059577
    1881, -0.950135,  4.105411, -1.066625
    1891, -0.946760,  4.125730, -1.072034
    1901, -0.940892,  4.146401, -1.076092
    1911, -0.934053,  4.166934, -1.079009
    1921, -0.927530,  4.187372, -1.080468
    1931, -0.922317,  4.207603, -1.080297
    1941, -0.919099,  4.227784, -1.078487
    1951, -0.918092,  4.248006, -1.075211
    1961, -0.918838,  4.267868, -1.070809
    1971, -0.920192,  4.287647, -1.065473
    1981, -0.920681,  4.306864, -1.059202
    1991, -0.919124,  4.326008, -1.051690
    2001, -0.915129,  4.345052, -1.042615
    2011, -0.909082,  4.364123, -1.031509
    2021, -0.901705,  4.383534, -1.017442
    2031, -0.893614,  4.403223, -1.000054
    2041, -0.885229,  4.422896, -0.979449
    2051, -0.876975,  4.442409, -0.956051
    2061, -0.869483,  4.461539, -0.931443
    2071, -0.863564,  4.479707, -0.906558
    2081, -0.859977,  4.496091, -0.883911
    2091, -0.859157,  4.510453, -0.865037
    2101, -0.861064,  4.521948, -0.853122
    2111, -0.865154,  4.529684, -0.850780
    2121, -0.870434,  4.532901, -0.858677
    2131, -0.875555,  4.530705, -0.879275
    2141, -0.878980,  4.523069, -0.911706
    2151, -0.879331,  4.510666, -0.953371
    2161, -0.875910,  4.495818, -0.997932
    2171, -0.869139,  4.481694, -1.036791
    2181, -0.860536,  4.471251, -1.066587
    2191, -0.852157,  4.467011, -1.083572
    2201, -0.845843,  4.469115, -1.094140
    2211, -0.842657,  4.476170, -1.107518
    2221, -0.842694,  4.486665, -1.132412
    2231, -0.845195,  4.499229, -1.169480
    2241, -0.848893,  4.513209, -1.211323
    2251, -0.852474,  4.528405, -1.246238
    2261, -0.855022,  4.544682, -1.254673
    2271, -0.856248,  4.561404, -1.225040
    2281, -0.856399,  4.578392, -1.170867
    2291, -0.855879,  4.594971, -1.110377
    2301, -0.854815,  4.610423, -1.055412
    2311, -0.852843,  4.624409, -1.013315
    2321, -0.849310,  4.636681, -0.981856
    2331, -0.843867,  4.647124, -0.959229
    2341, -0.837080,  4.656015, -0.943873
    2351, -0.830566,  4.663727, -0.934160
    2361, -0.826492,  4.670718, -0.926841
    2371, -0.826794,  4.677445, -0.920440
    2381, -0.832521,  4.684303, -0.914390
    2391, -0.843462,  4.691373, -0.911527
    2401, -0.858036,  4.698490, -0.908997
    2411, -0.873497,  4.705055, -0.906926
    2421, -0.886603,  4.710263, -0.906437
    2431, -0.894808,  4.713187, -0.909677
    2441, -0.897316,  4.713126, -0.917819
    2451, -0.895177,  4.709759, -0.930908
    2461, -0.890395,  4.703258, -0.947314
    2471, -0.884797,  4.694218, -0.963290
    2481, -0.879446,  4.683452, -0.974712
    2491, -0.874566,  4.671794, -0.976587
    2501, -0.869849,  4.659924, -0.968355
    2511, -0.864926,  4.648383, -0.950126
    2521, -0.859768,  4.637516, -0.927601
    2531, -0.854853,  4.627632, -0.908405
    2541, -0.851044,  4.618972, -0.895458
    2551, -0.849272,  4.611570, -0.890391
    2561, -0.850210,  4.605349, -0.893754
    2571, -0.854083,  4.600286, -0.906048
    2581, -0.860641,  4.596094, -0.926803
    2591, -0.869250,  4.592502, -0.954522
    2601, -0.879094,  4.589301, -0.986027
    2611, -0.889337,  4.586333, -1.019073
    2621, -0.899257,  4.583515, -1.050384
    2631, -0.908322,  4.580830, -1.075295
    2641, -0.916145,  4.578312, -1.091306
    2651, -0.922423,  4.576231, -1.098582
    2661, -0.926926,  4.574767, -1.099231
    2671, -0.929584,  4.574036, -1.095808
    2681, -0.930595,  4.574124, -1.090989
    2691, -0.930465,  4.575051, -1.084797
    2701, -0.929900,  4.576782, -1.079590
    2711, -0.929594,  4.579232, -1.075460
    2721, -0.930012,  4.582263, -1.073649
    2731, -0.931252,  4.585695, -1.075319
    2741, -0.933043,  4.589314, -1.081219
    2751, -0.934849,  4.592902, -1.091447
    2761, -0.936070,  4.596262, -1.105304
    2771, -0.936275,  4.599236, -1.121289
    2781, -0.935399,  4.601704, -1.137336
    2791, -0.933839,  4.603414, -1.151537
    2801, -0.932394,  4.604449, -1.161464
    2811, -0.932070,  4.604875, -1.166350
    2821, -0.933824,  4.604705, -1.165139
    2831, -0.938328,  4.603994, -1.158142
    2841, -0.945807,  4.603151, -1.146595
    2851, -0.955962,  4.602488, -1.132017
    2861, -0.967980,  4.602360, -1.115870
    2871, -0.980630,  4.603231, -1.099346
    2881, -0.992459,  4.605609, -1.083339
    2891, -1.002079,  4.609914, -1.068478
    2901, -1.008472,  4.616376, -1.054837
    2911, -1.011211,  4.624998, -1.042778
    2921, -1.010496,  4.635495, -1.032832
    2931, -1.007011,  4.647105, -1.024855
    2941, -1.001711,  4.658972, -1.018669
    2951, -0.995643,  4.670101, -1.014027
    2961, -0.989843,  4.679303, -1.010562
    2971, -0.985270,  4.686058, -1.008126
    2981, -0.982761,  4.689396, -1.006368
    2991, -0.982986,  4.689148, -1.005074
    3001, -0.986403,  4.685361, -1.004220
    3011, -0.993214,  4.678309, -1.003345
    3021, -1.003321,  4.669098, -1.002540
    3031, -1.016266,  4.659482, -1.000885
    3041, -1.031168,  4.651819, -0.997943
    3051, -1.046690,  4.649178, -0.993329
    3061, -1.061114,  4.654283, -0.987464
    3071, -1.072584,  4.668542, -0.980083
    3081, -1.079549,  4.691152, -0.971460
    3091, -1.081249,  4.719403, -0.962165
    3101, -1.077980,  4.749150, -0.952720
    3111, -1.070969,  4.776256, -0.943316
    3121, -1.061950,  4.798359, -0.934043
    3131, -1.052709,  4.815395, -0.925187
    3141, -1.044777,  4.827622, -0.917038
    3151, -1.039312,  4.835845, -0.909937
    3161, -1.037104,  4.840992, -0.904423
    3171, -1.038603,  4.844312, -0.900186
    3181, -1.043940,  4.847314, -0.897254
    3191, -1.052911,  4.851801, -0.895511
    3201, -1.064922,  4.859451, -0.894722
    3211, -1.078936,  4.871535, -0.894254
    3221, -1.093458,  4.888662, -0.893703
    3231, -1.106668,  4.910144, -0.892523
    3241, -1.116741,  4.934649, -0.890224
    3251, -1.122359,  4.960830, -0.886816
    3261, -1.123164,  4.986648, -0.882141
    3271, -1.119894,  5.010628, -0.876105
    3281, -1.114087,  5.031693, -0.868572
    3291, -1.107556,  5.049262, -0.860146
    3301, -1.101920,  5.062200, -0.850624
    3311, -1.098342,  5.070175, -0.840564
    3321, -1.097432,  5.073377, -0.829989
    3331, -1.099263,  5.072288, -0.819314
    3341, -1.103421,  5.068155, -0.809695
    3351, -1.109099,  5.062596, -0.801887
    3361, -1.115228,  5.057175, -0.796433
    3371, -1.120691,  5.053648, -0.793956
    3381, -1.124583,  5.052500, -0.794729
    3391, -1.126443,  5.053936, -0.798983
    3401, -1.126370,  5.057404, -0.806630
    3411, -1.124952,  5.061785, -0.817557
    3421, -1.123070,  5.066214, -0.831347
    3431, -1.121658,  5.070246, -0.847263
    3441, -1.121516,  5.072681, -0.863922
    3451, -1.123194,  5.072584, -0.879528
    3461, -1.126939,  5.071747, -0.893456
    3471, -1.132673,  5.070794, -0.904509
    3481, -1.139997,  5.070055, -0.912060
    3491, -1.148233,  5.070044, -0.916091
    3501, -1.156518,  5.070638, -0.916719
    3511, -1.163951,  5.071647, -0.915368
    3521, -1.169769,  5.072907, -0.912910
    3531, -1.173503,  5.074252, -0.909096
    3541, -1.175038,  5.075562, -0.904772
    3551, -1.174582,  5.076786, -0.900865
    3561, -1.172568,  5.077682, -0.897934
    3571, -1.169549,  5.078173, -0.896629
    3581, -1.166109,  5.078228, -0.897496
    3591, -1.162802,  5.077822, -0.900886
    3601, -1.160101,  5.076881, -0.906811
    3611, -1.158338,  5.075428, -0.915111
    3621, -1.157660,  5.073504, -0.925376
    3631, -1.158006,  5.071029, -0.936836
    3641, -1.159129,  5.068020, -0.948734
    3651, -1.160683,  5.064520, -0.959837
    3661, -1.162335,  5.060573, -0.969348
    3671, -1.163892,  5.056167, -0.977034
    3681, -1.165373,  5.051238, -0.982582
    3691, -1.167001,  5.045816, -0.986007
    3701, -1.169097,  5.040159, -0.987739
    3711, -1.171943,  5.034495, -0.988284
    3721, -1.175638,  5.029291, -0.988199
    3731, -1.180010,  5.024923, -0.988001
    3741, -1.184615,  5.021807, -0.988182
    3751, -1.188814,  5.020225, -0.989230
    3761, -1.191941,  5.020239, -0.991560
    3771, -1.193495,  5.021590, -0.995551
    3781, -1.193309,  5.023717, -1.001344
    3791, -1.191599,  5.025878, -1.008855
    3801, -1.188899,  5.027282, -1.017766
    3811, -1.185893,  5.027266, -1.027568
    3821, -1.183240,  5.025429, -1.037501
    3831, -1.181430,  5.021775, -1.046763
    3841, -1.180704,  5.016610, -1.054460
    3851, -1.181035,  5.010557, -1.059790
    3861, -1.182155,  5.004491, -1.062345
    3871, -1.183630,  4.999355, -1.062014
    3881, -1.184959,  4.996127, -1.058801
    3891, -1.185701,  4.995380, -1.053606
    3901, -1.185598,  4.997328, -1.046977
    3911, -1.184641,  5.001674, -1.039990
    3921, -1.183083,  5.007739, -1.033268
    3931, -1.181364,  5.014693, -1.027732
    3941, -1.180002,  5.021902, -1.024577
    3951, -1.179477,  5.028432, -1.023369
    3961, -1.180145,  5.033504, -1.023896
    3971, -1.182187,  5.036728, -1.025958
    3981, -1.185596,  5.037615, -1.028311
    3991, -1.190176,  5.035933, -1.029231
    4001, -1.195557,  5.031768, -1.026537
    4011, -1.201235,  5.025016, -1.017356
    4021, -1.206617,  5.015624, -1.000996
    4031, -1.211097,  5.003915, -0.978200
    4041, -1.214133,  4.990406, -0.951279
    4051, -1.215305,  4.975989, -0.923177
    4061, -1.214354,  4.961640, -0.898746
    4071, -1.211183,  4.948779, -0.878802
    4081, -1.205874,  4.938584, -0.864306
    4091, -1.198704,  4.931919, -0.855915
    4101, -1.190181,  4.929001, -0.854574
    4111, -1.181037,  4.929379, -0.860905
    4121, -1.172165,  4.932195, -0.875312
    4131, -1.164498,  4.936147, -0.897947
    4141, -1.158869,  4.940230, -0.928608
    4151, -1.155883,  4.943524, -0.966331
    4161, -1.155854,  4.945607, -1.008172
    4171, -1.158786,  4.946324, -1.048854
    4181, -1.164412,  4.945749, -1.083295
    4191, -1.172265,  4.944276, -1.098674
    4201, -1.181774,  4.942347, -1.088606
    4211, -1.192348,  4.940445, -1.058704
    4221, -1.203431,  4.939020, -1.024165
    4231, -1.214501,  4.938389, -0.990217
    4241, -1.225018,  4.938685, -0.960647
    4251, -1.234344,  4.939900, -0.937712
    4261, -1.241715,  4.941978, -0.922726
    4271, -1.246288,  4.944789, -0.915779
    4281, -1.247313,  4.948119, -0.916302
    4291, -1.244359,  4.951753, -0.923383
    4301, -1.237512,  4.955431, -0.935850
    4311, -1.227418,  4.958927, -0.952283
    4321, -1.215161,  4.962046, -0.971016
    4331, -1.202035,  4.964516, -0.989955
    4341, -1.189323,  4.966251, -1.007299
    4351, -1.178140,  4.967318, -1.021464
    4361, -1.169361,  4.967778, -1.031059
    4371, -1.163594,  4.968142, -1.036664
    4381, -1.161192,  4.968900, -1.039172
    4391, -1.162263,  4.970512, -1.039925
    4401, -1.166688,  4.973130, -1.040331
    4411, -1.174138,  4.977019, -1.041357
    4421, -1.184085,  4.982282, -1.043668
    4431, -1.195834,  4.988638, -1.047659
    4441, -1.208565,  4.995530, -1.053506
    4451, -1.221392,  5.002279, -1.060001
    4461, -1.233415,  5.008257, -1.066257
    4471, -1.243782,  5.012755, -1.071197
    4481, -1.251745,  5.015601, -1.073751
    4491, -1.256715,  5.016780, -1.072569
    4501, -1.258326,  5.016682, -1.066333
    4511, -1.256482,  5.016033, -1.054331
    4521, -1.251379,  5.015678, -1.036003
    4531, -1.243487,  5.016490, -1.012375
    4541, -1.233497,  5.019235, -0.985431
    4551, -1.222247,  5.024411, -0.957088
    4561, -1.210649,  5.031937, -0.929958
    4571, -1.199622,  5.041295, -0.905858
    4581, -1.190036,  5.051580, -0.887360
    4591, -1.182671,  5.061747, -0.875427
    4601, -1.178186,  5.070587, -0.871243
    4611, -1.177090,  5.077402, -0.875371
    4621, -1.179705,  5.081654, -0.888298
    4631, -1.186133,  5.082844, -0.910197
    4641, -1.196207,  5.080892, -0.940883
    4651, -1.209443,  5.075969, -0.979444
    4661, -1.224981,  5.068520, -1.023733
    4671, -1.241567,  5.059252, -1.070262
    4681, -1.257606,  5.048907, -1.110906
    4691, -1.271351,  5.038379, -1.135942
    4701, -1.281233,  5.028376, -1.139884
    4711, -1.286264,  5.019511, -1.125021
    4721, -1.286300,  5.012039, -1.100028
    4731, -1.282024,  5.006112, -1.075632
    4741, -1.274653,  5.001447, -1.055845
    4751, -1.265557,  4.997701, -1.042606
    4761, -1.255957,  4.994460, -1.037091
    4771, -1.246794,  4.991360, -1.038957
    4781, -1.238719,  4.988122, -1.046992
    4791, -1.232166,  4.984692, -1.059391
    4801, -1.227443,  4.981052, -1.073726
    4811, -1.224813,  4.977329, -1.087075
    4821, -1.224536,  4.973692, -1.097296
    4831, -1.226874,  4.970208, -1.103476
    4841, -1.232043,  4.966960, -1.106162
    4851, -1.240126,  4.964026, -1.107391
    4861, -1.250959,  4.961403, -1.109913
    4871, -1.264004,  4.958975, -1.114767
    4881, -1.278234,  4.956607, -1.123340
    4891, -1.292102,  4.954224, -1.135444
    4901, -1.303701,  4.951809, -1.150182
    4911, -1.311177,  4.949282, -1.165752
    4921, -1.313347,  4.946734, -1.179935
    4931, -1.310202,  4.944290, -1.190868
    4941, -1.302956,  4.941964, -1.197520
    4951, -1.293603,  4.939799, -1.200326
    4961, -1.284302,  4.937861, -1.200731
    4971, -1.276893,  4.936159, -1.200618
    4981, -1.272683,  4.934673, -1.201552
    4991, -1.272399,  4.933367, -1.204378
    5001, -1.276228,  4.932219, -1.209160
    5011, -1.283854,  4.931189, -1.215322
    5021, -1.294494,  4.930123, -1.221815
    5031, -1.306928,  4.928936, -1.227497
    5041, -1.319590,  4.927561, -1.231581
    5051, -1.330755,  4.925956, -1.233768
    5061, -1.338857,  4.924197, -1.234287
    5071, -1.342857,  4.922202, -1.233661
    5081, -1.342512,  4.919959, -1.232519
    5091, -1.338392,  4.917534, -1.231472
    5101, -1.331646,  4.915030, -1.231002
    5111, -1.323655,  4.912548, -1.231511
    5121, -1.315743,  4.910126, -1.233138
    5131, -1.308996,  4.907776, -1.235853
    5141, -1.304202,  4.905674, -1.239483
    5151, -1.301844,  4.903887, -1.243769
    5161, -1.302115,  4.902403, -1.248386
    5171, -1.304930,  4.901202, -1.252968
    5181, -1.309945,  4.900158, -1.257187
    5191, -1.316579,  4.899125, -1.260790
    5201, -1.324071,  4.898040, -1.263675
    5211, -1.331575,  4.896809, -1.265845
    5221, -1.338299,  4.895245, -1.267396
    5231, -1.343656,  4.893346, -1.268466
    5241, -1.347380,  4.891077, -1.269172
    5251, -1.349541,  4.888431, -1.269529
    5261, -1.350480,  4.885469, -1.269371
    5271, -1.350666,  4.882416, -1.268466
    5281, -1.350557,  4.879341, -1.266366
    5291, -1.350497,  4.876383, -1.262738
    5301, -1.350670,  4.873643, -1.257026
    5311, -1.351103,  4.871181, -1.249044
    5321, -1.351710,  4.869063, -1.239217
    5331, -1.352337,  4.867367, -1.228054
    5341, -1.352815,  4.866126, -1.216250
    5351, -1.353003,  4.865336, -1.204709
    5361, -1.352812,  4.864963, -1.194276
    5371, -1.352221,  4.864943, -1.185671
    5381, -1.351284,  4.865183, -1.179441
    5391, -1.350126,  4.865610, -1.175933
    5401, -1.348923,  4.866330, -1.175609
    5411, -1.347876,  4.867296, -1.178200
    5421, -1.347172,  4.868556, -1.183274
    5431, -1.346949,  4.870301, -1.190428
    5441, -1.347266,  4.872728, -1.199043
    5451, -1.348095,  4.875981, -1.208279
    5461, -1.349333,  4.880156, -1.217140
    5471, -1.350844,  4.885185, -1.224507
    5481, -1.352506,  4.890820, -1.229316
    5491, -1.354264,  4.896743, -1.230814
    5501, -1.356161,  4.902586, -1.228832
    5511, -1.358336,  4.908081, -1.224011
    5521, -1.360987,  4.912988, -1.217195
    5531, -1.364300,  4.916747, -1.209787
    5541, -1.368367,  4.919044, -1.203004
    5551, -1.373120,  4.919640, -1.198266
    5561, -1.378292,  4.918869, -1.196879
    5571, -1.383429,  4.916563, -1.199231
    5581, -1.387960,  4.913281, -1.204816
    5591, -1.391323,  4.910121, -1.213484
    5601, -1.393125,  4.907925, -1.223466
    5611, -1.393262,  4.907560, -1.232257
    5621, -1.391967,  4.909697, -1.236982
    5631, -1.389735,  4.914669, -1.235285
    5641, -1.387189,  4.922326, -1.226941
    5651, -1.384914,  4.931986, -1.213505
    5661, -1.383338,  4.942566, -1.197817
    5671, -1.382661,  4.952473, -1.182907
    5681, -1.382845,  4.960486, -1.171097
    5691, -1.383655,  4.965867, -1.164249
    5701, -1.384728,  4.968673, -1.163645
    5711, -1.385674,  4.969358, -1.169833
    5721, -1.386169,  4.968051, -1.182622
    5731, -1.386043,  4.965185, -1.200995
    5741, -1.385327,  4.961201, -1.222755
    5751, -1.384255,  4.956622, -1.244956
    5761, -1.383218,  4.952031, -1.263466
    5771, -1.382700,  4.948064, -1.274112
    5781, -1.383192,  4.945025, -1.274306
    5791, -1.385119,  4.943082, -1.264542
    5801, -1.388779,  4.942516, -1.248091
    5811, -1.394294,  4.942742, -1.230291
    5821, -1.401564,  4.943569, -1.212715
    5831, -1.410232,  4.944600, -1.197948
    5841, -1.419665,  4.945246, -1.187365
    5851, -1.428961,  4.945558, -1.181683
    5861, -1.437021,  4.945098, -1.180870
    5871, -1.442712,  4.943902, -1.184483
    5881, -1.445107,  4.942196, -1.191795
    5891, -1.443735,  4.940015, -1.201739
    5901, -1.438737,  4.937570, -1.213043
    5911, -1.430841,  4.935037, -1.224521
    5921, -1.421180,  4.932504, -1.235050
    5931, -1.411037,  4.929849, -1.242567
    5941, -1.401637,  4.927047, -1.246442
    5951, -1.394024,  4.924033, -1.246639
    5961, -1.389001,  4.920974, -1.243380
    5971, -1.387124,  4.918033, -1.237339
    5981, -1.388694,  4.915498, -1.229306
    5991, -1.393742,  4.913485, -1.220089
    6001, -1.401999,  4.912267, -1.210454
    6011, -1.412840,  4.911994, -1.200995
    6021, -1.425250,  4.912758, -1.192204
    6031, -1.437848,  4.914563, -1.184485
    6041, -1.449022,  4.917287, -1.178117
    6051, -1.457246,  4.920687, -1.173164
    6061, -1.461480,  4.924389, -1.170155
    6071, -1.461512,  4.927908, -1.169208
    6081, -1.457996,  4.930864, -1.170331
    6091, -1.452187,  4.933108, -1.173388
    6101, -1.445512,  4.934108, -1.177707
    6111, -1.439208,  4.933953, -1.183370
    6121, -1.434118,  4.932859, -1.189747
    6131, -1.430643,  4.930964, -1.195962
    6141, -1.428796,  4.928676, -1.200957
    6151, -1.428302,  4.926514, -1.203695
    6161, -1.428729,  4.925018, -1.203478
    6171, -1.429615,  4.924818, -1.200262
    6181, -1.430587,  4.926353, -1.194149
    6191, -1.431432,  4.929813, -1.185549
    6201, -1.432123,  4.935089, -1.175431
    6211, -1.432778,  4.941755, -1.165002
    6221, -1.433595,  4.949102, -1.154881
    6231, -1.434775,  4.956069, -1.145697
    6241, -1.436459,  4.961916, -1.138198
    6251, -1.438698,  4.966109, -1.132545
    6261, -1.441453,  4.968632, -1.129155
    6271, -1.444615,  4.969639, -1.128354
    6281, -1.448038,  4.969155, -1.130417
    6291, -1.451572,  4.967390, -1.135351
    6301, -1.455081,  4.964494, -1.143041
    6311, -1.458457,  4.960741, -1.153036
    6321, -1.461608,  4.956527, -1.164553
    6331, -1.464447,  4.952314, -1.176478
    6341, -1.466876,  4.948566, -1.187431
    6351, -1.468772,  4.945690, -1.196033
    6361, -1.469990,  4.943975, -1.201309
    6371, -1.470376,  4.943559, -1.202995
    6381, -1.469789,  4.944519, -1.201640
    6391, -1.468142,  4.946700, -1.198562
    6401, -1.465429,  4.949539, -1.195338
    6411, -1.461754,  4.952715, -1.193139
    6421, -1.457336,  4.956020, -1.193155
    6431, -1.452500,  4.958716, -1.196127
    6441, -1.447644,  4.960637, -1.202351
    6451, -1.443209,  4.961592, -1.211687
    6461, -1.439637,  4.961220, -1.223613
    6471, -1.437347,  4.959605, -1.237470
    6481, -1.436709,  4.956779, -1.251435
    6491, -1.438025,  4.952792, -1.263945
    6501, -1.441515,  4.947964, -1.273831
    6511, -1.447291,  4.942655, -1.280426
    6521, -1.455324,  4.937071, -1.283731
    6531, -1.465396,  4.931581, -1.284411
    6541, -1.477043,  4.926512, -1.283141
    6551, -1.489489,  4.922096, -1.281094
    6561, -1.501619,  4.918490, -1.279364
    6571, -1.512032,  4.915590, -1.278714
    6581, -1.519230,  4.913404, -1.279642
    6591, -1.521971,  4.911742, -1.282285
    6601, -1.519661,  4.910407, -1.286531
    6611, -1.512605,  4.909137, -1.291919
    6621, -1.501940,  4.907839, -1.297915
    6631, -1.489303,  4.906387, -1.303910
    6641, -1.476427,  4.904662, -1.309305
    6651, -1.464838,  4.902534, -1.313642
    6661, -1.455716,  4.900053, -1.316735
    6671, -1.449872,  4.897247, -1.318674
    6681, -1.447786,  4.894161, -1.319765
    6691, -1.449650,  4.890856, -1.320503
    6701, -1.455392,  4.887380, -1.321248
    6711, -1.464682,  4.883794, -1.322279
    6721, -1.476903,  4.880156, -1.323726
    6731, -1.491106,  4.876552, -1.325713
    6741, -1.505993,  4.872977, -1.327400
    6751, -1.519959,  4.869460, -1.327989
    6761, -1.531278,  4.866038, -1.326664
    6771, -1.538458,  4.862770, -1.322865
    6781, -1.540661,  4.859729, -1.316350
    6791, -1.538006,  4.856998, -1.307345
    6801, -1.531527,  4.854674, -1.296554
    6811, -1.522838,  4.852873, -1.285018
    6821, -1.513678,  4.851624, -1.273926
    6831, -1.505555,  4.850895, -1.264280
    6841, -1.499557,  4.850543, -1.256598
    6851, -1.496287,  4.850496, -1.251482
    6861, -1.495871,  4.850599, -1.249035
    6871, -1.497990,  4.850455, -1.248851
    6881, -1.501940,  4.850067, -1.250250
    6891, -1.506720,  4.849228, -1.252253
    6901, -1.511199,  4.848044, -1.253721
    6911, -1.514351,  4.846653, -1.253490
    6921, -1.515515,  4.844965, -1.250769
    6931, -1.514585,  4.843167, -1.245372
    6941, -1.512029,  4.841552, -1.237397
    6951, -1.508735,  4.840364, -1.227732
    6961, -1.505770,  4.839967, -1.217512
    6971, -1.504132,  4.840617, -1.207924
    6981, -1.504591,  4.842457, -1.200034
    6991, -1.507597,  4.845517, -1.194649
    7001, -1.513251,  4.849556, -1.192267
    7011, -1.521298,  4.854125, -1.193561
    7021, -1.531141,  4.858498, -1.197576
    7031, -1.541872,  4.861664, -1.203720
    7041, -1.552347,  4.863386, -1.211110
    7051, -1.561330,  4.863826, -1.218458
    7061, -1.567699,  4.863501, -1.224520
    7071, -1.570687,  4.862828, -1.227855
    7081, -1.570060,  4.862270, -1.227644
    7091, -1.566157,  4.862178, -1.223508
    7101, -1.559773,  4.862888, -1.215857
    7111, -1.551949,  4.864679, -1.205640