 variables=iter,cl,cd,cm,clim,cdim,cmim,clip,cdip,cmip,cljm,cdjm,cmjm,cljp,cdjp,cmjp
 zone t ="coefhist", f=point
       1  1.552677E-01  3.477432E-02 -7.939605E-02  0.000000E+00  0.000000E+00  0.000000E+00  0.000000E+00  0.000000E+00  0.000000E+00  1.552677E-01  3.477432E-02 -7.939605E-02  0.000000E+00  0.000000E+00  0.000000E+00
      11  1.352303E+00  3.104230E-01 -7.024108E-01  0.000000E+00  0.000000E+00  0.000000E+00  0.000000E+00  0.000000E+00  0.000000E+00  1.352303E+00  3.104230E-01 -7.024108E-01  0.000000E+00  0.000000E+00  0.000000E+00
      21  1.706697E+00  4.118975E-01 -8.892819E-01  0.000000E+00  0.000000E+00  0.000000E+00  0.000000E+00  0.000000E+00  0.000000E+00  1.706697E+00  4.118975E-01 -8.892819E-01  0.000000E+00  0.000000E+00  0.000000E+00
      31  1.529345E+00  3.948296E-01 -7.839411E-01  0.000000E+00  0.000000E+00  0.000000E+00  0.000000E+00  0.000000E+00  0.000000E+00  1.529345E+00  3.948296E-01 -7.839411E-01  0.000000E+00  0.000000E+00  0.000000E+00
      41  1.261224E+00  3.448634E-01 -6.227856E-01  0.000000E+00  0.000000E+00  0.000000E+00  0.000000E+00  0.000000E+00  0.000000E+00  1.261224E+00  3.448634E-01 -6.227856E-01  0.000000E+00  0.000000E+00  0.000000E+00
      51  1.078577E+00  3.005386E-01 -5.058979E-01  0.000000E+00  0.000000E+00  0.000000E+00  0.000000E+00  0.000000E+00  0.000000E+00  1.078577E+00  3.005386E-01 -5.058979E-01  0.000000E+00  0.000000E+00  0.000000E+00
      61  9.654998E-01  2.652673E-01 -4.261506E-01  0.000000E+00  0.000000E+00  0.000000E+00  0.000000E+00  0.000000E+00  0.000000E+00  9.654998E-01  2.652673E-01 -4.261506E-01  0.000000E+00  0.000000E+00  0.000000E+00
      71  8.721891E-01  2.346415E-01 -3.569228E-01  0.000000E+00  0.000000E+00  0.000000E+00  0.000000E+00  0.000000E+00  0.000000E+00  8.721891E-01  2.346415E-01 -3.569228E-01  0.000000E+00  0.000000E+00  0.000000E+00
      81  7.788140E-01  2.069586E-01 -2.890598E-01  0.000000E+00  0.000000E+00  0.000000E+00  0.000000E+00  0.000000E+00  0.000000E+00  7.788140E-01  2.069586E-01 -2.890598E-01  0.000000E+00  0.000000E+00  0.000000E+00
      91  6.876939E-01  1.821791E-01 -2.256233E-01  0.000000E+00  0.000000E+00  0.000000E+00  0.000000E+00  0.000000E+00  0.000000E+00  6.876939E-01  1.821791E-01 -2.256233E-01  0.000000E+00  0.000000E+00  0.000000E+00
     101  6.041872E-01  1.596811E-01 -1.700713E-01  0.000000E+00  0.000000E+00  0.000000E+00  0.000000E+00  0.000000E+00  0.000000E+00  6.041872E-01  1.596811E-01 -1.700713E-01  0.000000E+00  0.000000E+00  0.000000E+00
     111  5.298571E-01  1.381165E-01 -1.225635E-01  0.000000E+00  0.000000E+00  0.000000E+00  0.000000E+00  0.000000E+00  0.000000E+00  5.298571E-01  1.381165E-01 -1.225635E-01  0.000000E+00  0.000000E+00  0.000000E+00
     121  4.642333E-01  1.162778E-01 -8.185933E-02  0.000000E+00  0.000000E+00  0.000000E+00  0.000000E+00  0.000000E+00  0.000000E+00  4.642333E-01  1.162778E-01 -8.185933E-02  0.000000E+00  0.000000E+00  0.000000E+00
     131  4.071149E-01  9.364056E-02 -4.723698E-02  0.000000E+00  0.000000E+00  0.000000E+00  0.000000E+00  0.000000E+00  0.000000E+00  4.071149E-01  9.364056E-02 -4.723698E-02  0.000000E+00  0.000000E+00  0.000000E+00
     141  3.587133E-01  7.034242E-02 -1.866008E-02  0.000000E+00  0.000000E+00  0.000000E+00  0.000000E+00  0.000000E+00  0.000000E+00  3.587133E-01  7.034242E-02 -1.866008E-02  0.000000E+00  0.000000E+00  0.000000E+00
     151  3.186679E-01  4.690413E-02  3.923570E-03  0.000000E+00  0.000000E+00  0.000000E+00  0.000000E+00  0.000000E+00  0.000000E+00  3.186679E-01  4.690413E-02  3.923570E-03  0.000000E+00  0.000000E+00  0.000000E+00
     161  2.853730E-01  2.395579E-02  2.108208E-02  0.000000E+00  0.000000E+00  0.000000E+00  0.000000E+00  0.000000E+00  0.000000E+00  2.853730E-01  2.395579E-02  2.108208E-02  0.000000E+00  0.000000E+00  0.000000E+00
     171  2.562016E-01  2.078058E-03  3.386463E-02  0.000000E+00  0.000000E+00  0.000000E+00  0.000000E+00  0.000000E+00  0.000000E+00  2.562016E-01  2.078058E-03  3.386463E-02  0.000000E+00  0.000000E+00  0.000000E+00
     181  2.285197E-01 -1.821517E-02  4.335772E-02  0.000000E+00  0.000000E+00  0.000000E+00  0.000000E+00  0.000000E+00  0.000000E+00  2.285197E-01 -1.821517E-02  4.335772E-02  0.000000E+00  0.000000E+00  0.000000E+00
     191  2.009473E-01 -3.639053E-02  5.009546E-02  0.000000E+00  0.000000E+00  0.000000E+00  0.000000E+00  0.000000E+00  0.000000E+00  2.009473E-01 -3.639053E-02  5.009546E-02  0.000000E+00  0.000000E+00  0.000000E+00
     201  1.740860E-01 -5.181278E-02  5.370436E-02  0.000000E+00  0.000000E+00  0.000000E+00  0.000000E+00  0.000000E+00  0.000000E+00  1.740860E-01 -5.181278E-02  5.370436E-02  0.000000E+00  0.000000E+00  0.000000E+00
     211  1.501698E-01 -6.378091E-02  5.314736E-02  0.000000E+00  0.000000E+00  0.000000E+00  0.000000E+00  0.000000E+00  0.000000E+00  1.501698E-01 -6.378091E-02  5.314736E-02  0.000000E+00  0.000000E+00  0.000000E+00
     221  1.318180E-01 -7.169800E-02  4.754911E-02  0.000000E+00  0.000000E+00  0.000000E+00  0.000000E+00  0.000000E+00  0.000000E+00  1.318180E-01 -7.169800E-02  4.754911E-02  0.000000E+00  0.000000E+00  0.000000E+00
     231  1.207316E-01 -7.527202E-02  3.706069E-02  0.000000E+00  0.000000E+00  0.000000E+00  0.000000E+00  0.000000E+00  0.000000E+00  1.207316E-01 -7.527202E-02  3.706069E-02  0.000000E+00  0.000000E+00  0.000000E+00
     241  1.171806E-01 -7.461545E-02  2.310600E-02  0.000000E+00  0.000000E+00  0.000000E+00  0.000000E+00  0.000000E+00  0.000000E+00  1.171806E-01 -7.461545E-02  2.310600E-02  0.000000E+00  0.000000E+00  0.000000E+00
     251  1.204514E-01 -7.018955E-02  7.819431E-03  0.000000E+00  0.000000E+00  0.000000E+00  0.000000E+00  0.000000E+00  0.000000E+00  1.204514E-01 -7.018955E-02  7.819431E-03  0.000000E+00  0.000000E+00  0.000000E+00
     261  1.296957E-01 -6.264320E-02 -6.895183E-03  0.000000E+00  0.000000E+00  0.000000E+00  0.000000E+00  0.000000E+00  0.000000E+00  1.296957E-01 -6.264320E-02 -6.895183E-03  0.000000E+00  0.000000E+00  0.000000E+00
     271  1.444454E-01 -5.264306E-02 -2.002961E-02  0.000000E+00  0.000000E+00  0.000000E+00  0.000000E+00  0.000000E+00  0.000000E+00  1.444454E-01 -5.264306E-02 -2.002961E-02  0.000000E+00  0.000000E+00  0.000000E+00
     281  1.644464E-01 -4.077257E-02 -3.149019E-02  0.000000E+00  0.000000E+00  0.000000E+00  0.000000E+00  0.000000E+00  0.000000E+00  1.644464E-01 -4.077257E-02 -3.149019E-02  0.000000E+00  0.000000E+00  0.000000E+00
     291  1.891191E-01 -2.752067E-02 -4.164962E-02  0.000000E+00  0.000000E+00  0.000000E+00  0.000000E+00  0.000000E+00  0.000000E+00  1.891191E-01 -2.752067E-02 -4.164962E-02  0.000000E+00  0.000000E+00  0.000000E+00
     301  2.172861E-01 -1.332760E-02 -5.092407E-02  0.000000E+00  0.000000E+00  0.000000E+00  0.000000E+00  0.000000E+00  0.000000E+00  2.172861E-01 -1.332760E-02 -5.092407E-02  0.000000E+00  0.000000E+00  0.000000E+00
     311  2.474820E-01  1.362330E-03 -5.967741E-02  0.000000E+00  0.000000E+00  0.000000E+00  0.000000E+00  0.000000E+00  0.000000E+00  2.474820E-01  1.362330E-03 -5.967741E-02  0.000000E+00  0.000000E+00  0.000000E+00
     321  2.785423E-01  1.607259E-02 -6.832917E-02  0.000000E+00  0.000000E+00  0.000000E+00  0.000000E+00  0.000000E+00  0.000000E+00  2.785423E-01  1.607259E-02 -6.832917E-02  0.000000E+00  0.000000E+00  0.000000E+00
     331  3.099253E-01  3.029298E-02 -7.736785E-02  0.000000E+00  0.000000E+00  0.000000E+00  0.000000E+00  0.000000E+00  0.000000E+00  3.099253E-01  3.029298E-02 -7.736785E-02  0.000000E+00  0.000000E+00  0.000000E+00
     341  3.415749E-01  4.349672E-02 -8.718840E-02  0.000000E+00  0.000000E+00  0.000000E+00  0.000000E+00  0.000000E+00  0.000000E+00  3.415749E-01  4.349672E-02 -8.718840E-02  0.000000E+00  0.000000E+00  0.000000E+00
     351  3.735898E-01  5.518120E-02 -9.792953E-02  0.000000E+00  0.000000E+00  0.000000E+00  0.000000E+00  0.000000E+00  0.000000E+00  3.735898E-01  5.518120E-02 -9.792953E-02  0.000000E+00  0.000000E+00  0.000000E+00
     361  4.060088E-01  6.494761E-02 -1.094683E-01  0.000000E+00  0.000000E+00  0.000000E+00  0.000000E+00  0.000000E+00  0.000000E+00  4.060088E-01  6.494761E-02 -1.094683E-01  0.000000E+00  0.000000E+00  0.000000E+00
     371  4.387308E-01  7.261593E-02 -1.215421E-01  0.000000E+00  0.000000E+00  0.000000E+00  0.000000E+00  0.000000E+00  0.000000E+00  4.387308E-01  7.261593E-02 -1.215421E-01  0.000000E+00  0.000000E+00  0.000000E+00
     381  4.714197E-01  7.832317E-02 -1.338708E-01  0.000000E+00  0.000000E+00  0.000000E+00  0.000000E+00  0.000000E+00  0.000000E+00  4.714197E-01  7.832317E-02 -1.338708E-01  0.000000E+00  0.000000E+00  0.000000E+00
     391  5.033616E-01  8.251006E-02 -1.462044E-01  0.000000E+00  0.000000E+00  0.000000E+00  0.000000E+00  0.000000E+00  0.000000E+00  5.033616E-01  8.251006E-02 -1.462044E-01  0.000000E+00  0.000000E+00  0.000000E+00
     401  5.334217E-01  8.575372E-02 -1.583041E-01  0.000000E+00  0.000000E+00  0.000000E+00  0.000000E+00  0.000000E+00  0.000000E+00  5.334217E-01  8.575372E-02 -1.583041E-01  0.000000E+00  0.000000E+00  0.000000E+00
     411  5.602161E-01  8.853393E-02 -1.698983E-01  0.000000E+00  0.000000E+00  0.000000E+00  0.000000E+00  0.000000E+00  0.000000E+00  5.602161E-01  8.853393E-02 -1.698983E-01  0.000000E+00  0.000000E+00  0.000000E+00
     421  5.824571E-01  9.105484E-02 -1.806507E-01  0.000000E+00  0.000000E+00  0.000000E+00  0.000000E+00  0.000000E+00  0.000000E+00  5.824571E-01  9.105484E-02 -1.806507E-01  0.000000E+00  0.000000E+00  0.000000E+00
     431  5.993642E-01  9.317862E-02 -1.901619E-01  0.000000E+00  0.000000E+00  0.000000E+00  0.000000E+00  0.000000E+00  0.000000E+00  5.993642E-01  9.317862E-02 -1.901619E-01  0.000000E+00  0.000000E+00  0.000000E+00
     441  6.110321E-01  9.449046E-02 -1.980161E-01  0.000000E+00  0.000000E+00  0.000000E+00  0.000000E+00  0.000000E+00  0.000000E+00  6.110321E-01  9.449046E-02 -1.980161E-01  0.000000E+00  0.000000E+00  0.000000E+00
     451  6.185936E-01  9.448983E-02 -2.038748E-01  0.000000E+00  0.000000E+00  0.000000E+00  0.000000E+00  0.000000E+00  0.000000E+00  6.185936E-01  9.448983E-02 -2.038748E-01  0.000000E+00  0.000000E+00  0.000000E+00
     461  6.239309E-01  9.284111E-02 -2.075908E-01  0.000000E+00  0.000000E+00  0.000000E+00  0.000000E+00  0.000000E+00  0.000000E+00  6.239309E-01  9.284111E-02 -2.075908E-01  0.000000E+00  0.000000E+00  0.000000E+00
     471  6.288236E-01  8.954666E-02 -2.092693E-01  0.000000E+00  0.000000E+00  0.000000E+00  0.000000E+00  0.000000E+00  0.000000E+00  6.288236E-01  8.954666E-02 -2.092693E-01  0.000000E+00  0.000000E+00  0.000000E+00
     481  6.339025E-01  8.492536E-02 -2.091998E-01  0.000000E+00  0.000000E+00  0.000000E+00  0.000000E+00  0.000000E+00  0.000000E+00  6.339025E-01  8.492536E-02 -2.091998E-01  0.000000E+00  0.000000E+00  0.000000E+00
     491  6.382294E-01  7.942943E-02 -2.076841E-01  0.000000E+00  0.000000E+00  0.000000E+00  0.000000E+00  0.000000E+00  0.000000E+00  6.382294E-01  7.942943E-02 -2.076841E-01  0.000000E+00  0.000000E+00  0.000000E+00
     501  6.400392E-01  7.347656E-02 -2.049189E-01  0.000000E+00  0.000000E+00  0.000000E+00  0.000000E+00  0.000000E+00  0.000000E+00  6.400392E-01  7.347656E-02 -2.049189E-01  0.000000E+00  0.000000E+00  0.000000E+00
     511  6.381203E-01  6.742463E-02 -2.010479E-01  0.000000E+00  0.000000E+00  0.000000E+00  0.000000E+00  0.000000E+00  0.000000E+00  6.381203E-01  6.742463E-02 -2.010479E-01  0.000000E+00  0.000000E+00  0.000000E+00
     521  6.326289E-01  6.162505E-02 -1.962859E-01  0.000000E+00  0.000000E+00  0.000000E+00  0.000000E+00  0.000000E+00  0.000000E+00  6.326289E-01  6.162505E-02 -1.962859E-01  0.000000E+00  0.000000E+00  0.000000E+00
     531  6.247466E-01  5.641372E-02 -1.909336E-01  0.000000E+00  0.000000E+00  0.000000E+00  0.000000E+00  0.000000E+00  0.000000E+00  6.247466E-01  5.641372E-02 -1.909336E-01  0.000000E+00  0.000000E+00  0.000000E+00
     541  6.157704E-01  5.202372E-02 -1.852712E-01  0.000000E+00  0.000000E+00  0.000000E+00  0.000000E+00  0.000000E+00  0.000000E+00  6.157704E-01  5.202372E-02 -1.852712E-01  0.000000E+00  0.000000E+00  0.000000E+00
     551  6.065593E-01  4.852634E-02 -1.794838E-01  0.000000E+00  0.000000E+00  0.000000E+00  0.000000E+00  0.000000E+00  0.000000E+00  6.065593E-01  4.852634E-02 -1.794838E-01  0.000000E+00  0.000000E+00  0.000000E+00
     561  5.975813E-01  4.586245E-02 -1.737061E-01  0.000000E+00  0.000000E+00  0.000000E+00  0.000000E+00  0.000000E+00  0.000000E+00  5.975813E-01  4.586245E-02 -1.737061E-01  0.000000E+00  0.000000E+00  0.000000E+00
     571  5.891535E-01  4.391724E-02 -1.681020E-01  0.000000E+00  0.000000E+00  0.000000E+00  0.000000E+00  0.000000E+00  0.000000E+00  5.891535E-01  4.391724E-02 -1.681020E-01  0.000000E+00  0.000000E+00  0.000000E+00
     581  5.815145E-01  4.256853E-02 -1.628744E-01  0.000000E+00  0.000000E+00  0.000000E+00  0.000000E+00  0.000000E+00  0.000000E+00  5.815145E-01  4.256853E-02 -1.628744E-01  0.000000E+00  0.000000E+00  0.000000E+00
     591  5.747513E-01  4.169648E-02 -1.582075E-01  0.000000E+00  0.000000E+00  0.000000E+00  0.000000E+00  0.000000E+00  0.000000E+00  5.747513E-01  4.169648E-02 -1.582075E-01  0.000000E+00  0.000000E+00  0.000000E+00
     601  5.687710E-01  4.118301E-02 -1.542154E-01  0.000000E+00  0.000000E+00  0.000000E+00  0.000000E+00  0.000000E+00  0.000000E+00  5.687710E-01  4.118301E-02 -1.542154E-01  0.000000E+00  0.000000E+00  0.000000E+00
     611  5.633832E-01  4.091984E-02 -1.509374E-01  0.000000E+00  0.000000E+00  0.000000E+00  0.000000E+00  0.000000E+00  0.000000E+00  5.633832E-01  4.091984E-02 -1.509374E-01  0.000000E+00  0.000000E+00  0.000000E+00
     621  5.584202E-01  4.082033E-02 -1.483645E-01  0.000000E+00  0.000000E+00  0.000000E+00  0.000000E+00  0.000000E+00  0.000000E+00  5.584202E-01  4.082033E-02 -1.483645E-01  0.000000E+00  0.000000E+00  0.000000E+00
     631  5.538116E-01  4.082589E-02 -1.464665E-01  0.000000E+00  0.000000E+00  0.000000E+00  0.000000E+00  0.000000E+00  0.000000E+00  5.538116E-01  4.082589E-02 -1.464665E-01  0.000000E+00  0.000000E+00  0.000000E+00
     641  5.495947E-01  4.090531E-02 -1.452091E-01  0.000000E+00  0.000000E+00  0.000000E+00  0.000000E+00  0.000000E+00  0.000000E+00  5.495947E-01  4.090531E-02 -1.452091E-01  0.000000E+00  0.000000E+00  0.000000E+00
     651  5.458841E-01  4.105060E-02 -1.445596E-01  0.000000E+00  0.000000E+00  0.000000E+00  0.000000E+00  0.000000E+00  0.000000E+00  5.458841E-01  4.105060E-02 -1.445596E-01  0.000000E+00  0.000000E+00  0.000000E+00
     661  5.428266E-01  4.127186E-02 -1.444824E-01  0.000000E+00  0.000000E+00  0.000000E+00  0.000000E+00  0.000000E+00  0.000000E+00  5.428266E-01  4.127186E-02 -1.444824E-01  0.000000E+00  0.000000E+00  0.000000E+00
     671  5.405580E-01  4.159104E-02 -1.449260E-01  0.000000E+00  0.000000E+00  0.000000E+00  0.000000E+00  0.000000E+00  0.000000E+00  5.405580E-01  4.159104E-02 -1.449260E-01  0.000000E+00  0.000000E+00  0.000000E+00
     681  5.391727E-01  4.203462E-02 -1.458077E-01  0.000000E+00  0.000000E+00  0.000000E+00  0.000000E+00  0.000000E+00  0.000000E+00  5.391727E-01  4.203462E-02 -1.458077E-01  0.000000E+00  0.000000E+00  0.000000E+00
     691  5.387100E-01  4.262638E-02 -1.470063E-01  0.000000E+00  0.000000E+00  0.000000E+00  0.000000E+00  0.000000E+00  0.000000E+00  5.387100E-01  4.262638E-02 -1.470063E-01  0.000000E+00  0.000000E+00  0.000000E+00
     701  5.391574E-01  4.338182E-02 -1.483726E-01  0.000000E+00  0.000000E+00  0.000000E+00  0.000000E+00  0.000000E+00  0.000000E+00  5.391574E-01  4.338182E-02 -1.483726E-01  0.000000E+00  0.000000E+00  0.000000E+00
     711  5.404637E-01  4.430509E-02 -1.497564E-01  0.000000E+00  0.000000E+00  0.000000E+00  0.000000E+00  0.000000E+00  0.000000E+00  5.404637E-01  4.430509E-02 -1.497564E-01  0.000000E+00  0.000000E+00  0.000000E+00
     721  5.425559E-01  4.538833E-02 -1.510416E-01  0.000000E+00  0.000000E+00  0.000000E+00  0.000000E+00  0.000000E+00  0.000000E+00  5.425559E-01  4.538833E-02 -1.510416E-01  0.000000E+00  0.000000E+00  0.000000E+00
     731  5.453536E-01  4.661290E-02 -1.521704E-01  0.000000E+00  0.000000E+00  0.000000E+00  0.000000E+00  0.000000E+00  0.000000E+00  5.453536E-01  4.661290E-02 -1.521704E-01  0.000000E+00  0.000000E+00  0.000000E+00
     741  5.487791E-01  4.795139E-02 -1.531491E-01  0.000000E+00  0.000000E+00  0.000000E+00  0.000000E+00  0.000000E+00  0.000000E+00  5.487791E-01  4.795139E-02 -1.531491E-01  0.000000E+00  0.000000E+00  0.000000E+00
     751  5.527627E-01  4.936941E-02 -1.540329E-01  0.000000E+00  0.000000E+00  0.000000E+00  0.000000E+00  0.000000E+00  0.000000E+00  5.527627E-01  4.936941E-02 -1.540329E-01  0.000000E+00  0.000000E+00  0.000000E+00
     761  5.572429E-01  5.082655E-02 -1.549004E-01  0.000000E+00  0.000000E+00  0.000000E+00  0.000000E+00  0.000000E+00  0.000000E+00  5.572429E-01  5.082655E-02 -1.549004E-01  0.000000E+00  0.000000E+00  0.000000E+00
     771  5.621634E-01  5.227671E-02 -1.558300E-01  0.000000E+00  0.000000E+00  0.000000E+00  0.000000E+00  0.000000E+00  0.000000E+00  5.621634E-01  5.227671E-02 -1.558300E-01  0.000000E+00  0.000000E+00  0.000000E+00
     781  5.674678E-01  5.366895E-02 -1.568846E-01  0.000000E+00  0.000000E+00  0.000000E+00  0.000000E+00  0.000000E+00  0.000000E+00  5.674678E-01  5.366895E-02 -1.568846E-01  0.000000E+00  0.000000E+00  0.000000E+00
     791  5.730922E-01  5.495033E-02 -1.581043E-01  0.000000E+00  0.000000E+00  0.000000E+00  0.000000E+00  0.000000E+00  0.000000E+00  5.730922E-01  5.495033E-02 -1.581043E-01  0.000000E+00  0.000000E+00  0.000000E+00
     801  5.789553E-01  5.607135E-02 -1.595043E-01  0.000000E+00  0.000000E+00  0.000000E+00  0.000000E+00  0.000000E+00  0.000000E+00  5.789553E-01  5.607135E-02 -1.595043E-01  0.000000E+00  0.000000E+00  0.000000E+00
     811  5.849520E-01  5.699307E-02 -1.610755E-01  0.000000E+00  0.000000E+00  0.000000E+00  0.000000E+00  0.000000E+00  0.000000E+00  5.849520E-01  5.699307E-02 -1.610755E-01  0.000000E+00  0.000000E+00  0.000000E+00
     821  5.909520E-01  5.769358E-02 -1.627871E-01  0.000000E+00  0.000000E+00  0.000000E+00  0.000000E+00  0.000000E+00  0.000000E+00  5.909520E-01  5.769358E-02 -1.627871E-01  0.000000E+00  0.000000E+00  0.000000E+00
     831  5.968058E-01  5.817078E-02 -1.645910E-01  0.000000E+00  0.000000E+00  0.000000E+00  0.000000E+00  0.000000E+00  0.000000E+00  5.968058E-01  5.817078E-02 -1.645910E-01  0.000000E+00  0.000000E+00  0.000000E+00
     841  6.023558E-01  5.843966E-02 -1.664279E-01  0.000000E+00  0.000000E+00  0.000000E+00  0.000000E+00  0.000000E+00  0.000000E+00  6.023558E-01  5.843966E-02 -1.664279E-01  0.000000E+00  0.000000E+00  0.000000E+00
     851  6.074511E-01  5.852461E-02 -1.682326E-01  0.000000E+00  0.000000E+00  0.000000E+00  0.000000E+00  0.000000E+00  0.000000E+00  6.074511E-01  5.852461E-02 -1.682326E-01  0.000000E+00  0.000000E+00  0.000000E+00
     861  6.119640E-01  5.845024E-02 -1.699389E-01  0.000000E+00  0.000000E+00  0.000000E+00  0.000000E+00  0.000000E+00  0.000000E+00  6.119640E-01  5.845024E-02 -1.699389E-01  0.000000E+00  0.000000E+00  0.000000E+00
     871  6.158076E-01  5.823459E-02 -1.714832E-01  0.000000E+00  0.000000E+00  0.000000E+00  0.000000E+00  0.000000E+00  0.000000E+00  6.158076E-01  5.823459E-02 -1.714832E-01  0.000000E+00  0.000000E+00  0.000000E+00
     881  6.189507E-01  5.788769E-02 -1.728085E-01  0.000000E+00  0.000000E+00  0.000000E+00  0.000000E+00  0.000000E+00  0.000000E+00  6.189507E-01  5.788769E-02 -1.728085E-01  0.000000E+00  0.000000E+00  0.000000E+00
     891  6.214257E-01  5.741540E-02 -1.738694E-01  0.000000E+00  0.000000E+00  0.000000E+00  0.000000E+00  0.000000E+00  0.000000E+00  6.214257E-01  5.741540E-02 -1.738694E-01  0.000000E+00  0.000000E+00  0.000000E+00
     901  6.233211E-01  5.682581E-02 -1.746371E-01  0.000000E+00  0.000000E+00  0.000000E+00  0.000000E+00  0.000000E+00  0.000000E+00  6.233211E-01  5.682581E-02 -1.746371E-01  0.000000E+00  0.000000E+00  0.000000E+00
     911  6.247585E-01  5.613466E-02 -1.751035E-01  0.000000E+00  0.000000E+00  0.000000E+00  0.000000E+00  0.000000E+00  0.000000E+00  6.247585E-01  5.613466E-02 -1.751035E-01  0.000000E+00  0.000000E+00  0.000000E+00
     921  6.258575E-01  5.536661E-02 -1.752821E-01  0.000000E+00  0.000000E+00  0.000000E+00  0.000000E+00  0.000000E+00  0.000000E+00  6.258575E-01  5.536661E-02 -1.752821E-01  0.000000E+00  0.000000E+00  0.000000E+00
     931  6.267023E-01  5.455168E-02 -1.752050E-01  0.000000E+00  0.000000E+00  0.000000E+00  0.000000E+00  0.000000E+00  0.000000E+00  6.267023E-01  5.455168E-02 -1.752050E-01  0.000000E+00  0.000000E+00  0.000000E+00
     941  6.273245E-01  5.371880E-02 -1.749160E-01  0.000000E+00  0.000000E+00  0.000000E+00  0.000000E+00  0.000000E+00  0.000000E+00  6.273245E-01  5.371880E-02 -1.749160E-01  0.000000E+00  0.000000E+00  0.000000E+00
     951  6.277072E-01  5.289013E-02 -1.744615E-01  0.000000E+00  0.000000E+00  0.000000E+00  0.000000E+00  0.000000E+00  0.000000E+00  6.277072E-01  5.289013E-02 -1.744615E-01  0.000000E+00  0.000000E+00  0.000000E+00
     961  6.278040E-01  5.207885E-02 -1.738821E-01  0.000000E+00  0.000000E+00  0.000000E+00  0.000000E+00  0.000000E+00  0.000000E+00  6.278040E-01  5.207885E-02 -1.738821E-01  0.000000E+00  0.000000E+00  0.000000E+00
     971  6.275618E-01  5.129098E-02 -1.732053E-01  0.000000E+00  0.000000E+00  0.000000E+00  0.000000E+00  0.000000E+00  0.000000E+00  6.275618E-01  5.129098E-02 -1.732053E-01  0.000000E+00  0.000000E+00  0.000000E+00
     981  6.269367E-01  5.052963E-02 -1.724420E-01  0.000000E+00  0.000000E+00  0.000000E+00  0.000000E+00  0.000000E+00  0.000000E+00  6.269367E-01  5.052963E-02 -1.724420E-01  0.000000E+00  0.000000E+00  0.000000E+00
     991  6.259036E-01  4.979950E-02 -1.715881E-01  0.000000E+00  0.000000E+00  0.000000E+00  0.000000E+00  0.000000E+00  0.000000E+00  6.259036E-01  4.979950E-02 -1.715881E-01  0.000000E+00  0.000000E+00  0.000000E+00
    1001  6.244646E-01  4.911003E-02 -1.706312E-01  0.000000E+00  0.000000E+00  0.000000E+00  0.000000E+00  0.000000E+00  0.000000E+00  6.244646E-01  4.911003E-02 -1.706312E-01  0.000000E+00  0.000000E+00  0.000000E+00
    1011  6.226578E-01  4.847643E-02 -1.695612E-01  0.000000E+00  0.000000E+00  0.000000E+00  0.000000E+00  0.000000E+00  0.000000E+00  6.226578E-01  4.847643E-02 -1.695612E-01  0.000000E+00  0.000000E+00  0.000000E+00
    1021  6.205611E-01  4.791820E-02 -1.683813E-01  0.000000E+00  0.000000E+00  0.000000E+00  0.000000E+00  0.000000E+00  0.000000E+00  6.205611E-01  4.791820E-02 -1.683813E-01  0.000000E+00  0.000000E+00  0.000000E+00
    1031  6.182858E-01  4.745542E-02 -1.671135E-01  0.000000E+00  0.000000E+00  0.000000E+00  0.000000E+00  0.000000E+00  0.000000E+00  6.182858E-01  4.745542E-02 -1.671135E-01  0.000000E+00  0.000000E+00  0.000000E+00
    1041  6.159604E-01  4.710406E-02 -1.657987E-01  0.000000E+00  0.000000E+00  0.000000E+00  0.000000E+00  0.000000E+00  0.000000E+00  6.159604E-01  4.710406E-02 -1.657987E-01  0.000000E+00  0.000000E+00  0.000000E+00
    1051  6.137093E-01  4.687177E-02 -1.644905E-01  0.000000E+00  0.000000E+00  0.000000E+00  0.000000E+00  0.000000E+00  0.000000E+00  6.137093E-01  4.687177E-02 -1.644905E-01  0.000000E+00  0.000000E+00  0.000000E+00
    1061  6.116349E-01  4.675577E-02 -1.632459E-01  0.000000E+00  0.000000E+00  0.000000E+00  0.000000E+00  0.000000E+00  0.000000E+00  6.116349E-01  4.675577E-02 -1.632459E-01  0.000000E+00  0.000000E+00  0.000000E+00
    1071  6.098067E-01  4.674326E-02 -1.621170E-01  0.000000E+00  0.000000E+00  0.000000E+00  0.000000E+00  0.000000E+00  0.000000E+00  6.098067E-01  4.674326E-02 -1.621170E-01  0.000000E+00  0.000000E+00  0.000000E+00
    1081  6.082593E-01  4.681400E-02 -1.611434E-01  0.000000E+00  0.000000E+00  0.000000E+00  0.000000E+00  0.000000E+00  0.000000E+00  6.082593E-01  4.681400E-02 -1.611434E-01  0.000000E+00  0.000000E+00  0.000000E+00
    1091  6.069963E-01  4.694405E-02 -1.603481E-01  0.000000E+00  0.000000E+00  0.000000E+00  0.000000E+00  0.000000E+00  0.000000E+00  6.069963E-01  4.694405E-02 -1.603481E-01  0.000000E+00  0.000000E+00  0.000000E+00
    1101  6.059989E-01  4.710954E-02 -1.597366E-01  0.000000E+00  0.000000E+00  0.000000E+00  0.000000E+00  0.000000E+00  0.000000E+00  6.059989E-01  4.710954E-02 -1.597366E-01  0.000000E+00  0.000000E+00  0.000000E+00
    1111  6.052360E-01  4.728965E-02 -1.592980E-01  0.000000E+00  0.000000E+00  0.000000E+00  0.000000E+00  0.000000E+00  0.000000E+00  6.052360E-01  4.728965E-02 -1.592980E-01  0.000000E+00  0.000000E+00  0.000000E+00
    1121  6.046730E-01  4.746838E-02 -1.590091E-01  0.000000E+00  0.000000E+00  0.000000E+00  0.000000E+00  0.000000E+00  0.000000E+00  6.046730E-01  4.746838E-02 -1.590091E-01  0.000000E+00  0.000000E+00  0.000000E+00
    1131  6.042795E-01  4.763510E-02 -1.588385E-01  0.000000E+00  0.000000E+00  0.000000E+00  0.000000E+00  0.000000E+00  0.000000E+00  6.042795E-01  4.763510E-02 -1.588385E-01  0.000000E+00  0.000000E+00  0.000000E+00
    1141  6.040330E-01  4.778400E-02 -1.587519E-01  0.000000E+00  0.000000E+00  0.000000E+00  0.000000E+00  0.000000E+00  0.000000E+00  6.040330E-01  4.778400E-02 -1.587519E-01  0.000000E+00  0.000000E+00  0.000000E+00
    1151  6.039200E-01  4.791294E-02 -1.587170E-01  0.000000E+00  0.000000E+00  0.000000E+00  0.000000E+00  0.000000E+00  0.000000E+00  6.039200E-01  4.791294E-02 -1.587170E-01  0.000000E+00  0.000000E+00  0.000000E+00
    1161  6.039351E-01  4.802213E-02 -1.587072E-01  0.000000E+00  0.000000E+00  0.000000E+00  0.000000E+00  0.000000E+00  0.000000E+00  6.039351E-01  4.802213E-02 -1.587072E-01  0.000000E+00  0.000000E+00  0.000000E+00
    1171  6.040782E-01  4.811292E-02 -1.587044E-01  0.000000E+00  0.000000E+00  0.000000E+00  0.000000E+00  0.000000E+00  0.000000E+00  6.040782E-01  4.811292E-02 -1.587044E-01  0.000000E+00  0.000000E+00  0.000000E+00
    1181  6.043507E-01  4.818697E-02 -1.586999E-01  0.000000E+00  0.000000E+00  0.000000E+00  0.000000E+00  0.000000E+00  0.000000E+00  6.043507E-01  4.818697E-02 -1.586999E-01  0.000000E+00  0.000000E+00  0.000000E+00
    1191  6.047532E-01  4.824570E-02 -1.586930E-01  0.000000E+00  0.000000E+00  0.000000E+00  0.000000E+00  0.000000E+00  0.000000E+00  6.047532E-01  4.824570E-02 -1.586930E-01  0.000000E+00  0.000000E+00  0.000000E+00
    1201  6.052827E-01  4.828995E-02 -1.586891E-01  0.000000E+00  0.000000E+00  0.000000E+00  0.000000E+00  0.000000E+00  0.000000E+00  6.052827E-01  4.828995E-02 -1.586891E-01  0.000000E+00  0.000000E+00  0.000000E+00
    1211  6.059313E-01  4.831992E-02 -1.586962E-01  0.000000E+00  0.000000E+00  0.000000E+00  0.000000E+00  0.000000E+00  0.000000E+00  6.059313E-01  4.831992E-02 -1.586962E-01  0.000000E+00  0.000000E+00  0.000000E+00
    1221  6.066849E-01  4.833504E-02 -1.587216E-01  0.000000E+00  0.000000E+00  0.000000E+00  0.000000E+00  0.000000E+00  0.000000E+00  6.066849E-01  4.833504E-02 -1.587216E-01  0.000000E+00  0.000000E+00  0.000000E+00
    1231  6.075228E-01  4.833388E-02 -1.587694E-01  0.000000E+00  0.000000E+00  0.000000E+00  0.000000E+00  0.000000E+00  0.000000E+00  6.075228E-01  4.833388E-02 -1.587694E-01  0.000000E+00  0.000000E+00  0.000000E+00
    1241  6.084167E-01  4.831408E-02 -1.588385E-01  0.000000E+00  0.000000E+00  0.000000E+00  0.000000E+00  0.000000E+00  0.000000E+00  6.084167E-01  4.831408E-02 -1.588385E-01  0.000000E+00  0.000000E+00  0.000000E+00
    1251  6.093301E-01  4.827221E-02 -1.589214E-01  0.000000E+00  0.000000E+00  0.000000E+00  0.000000E+00  0.000000E+00  0.000000E+00  6.093301E-01  4.827221E-02 -1.589214E-01  0.000000E+00  0.000000E+00  0.000000E+00
    1261  6.102176E-01  4.820386E-02 -1.590039E-01  0.000000E+00  0.000000E+00  0.000000E+00  0.000000E+00  0.000000E+00  0.000000E+00  6.102176E-01  4.820386E-02 -1.590039E-01  0.000000E+00  0.000000E+00  0.000000E+00
    1271  6.110263E-01  4.810379E-02 -1.590662E-01  0.000000E+00  0.000000E+00  0.000000E+00  0.000000E+00  0.000000E+00  0.000000E+00  6.110263E-01  4.810379E-02 -1.590662E-01  0.000000E+00  0.000000E+00  0.000000E+00
    1281  6.116984E-01  4.796651E-02 -1.590848E-01  0.000000E+00  0.000000E+00  0.000000E+00  0.000000E+00  0.000000E+00  0.000000E+00  6.116984E-01  4.796651E-02 -1.590848E-01  0.000000E+00  0.000000E+00  0.000000E+00
    1291  6.121772E-01  4.778714E-02 -1.590358E-01  0.000000E+00  0.000000E+00  0.000000E+00  0.000000E+00  0.000000E+00  0.000000E+00  6.121772E-01  4.778714E-02 -1.590358E-01  0.000000E+00  0.000000E+00  0.000000E+00
    1301  6.124153E-01  4.756258E-02 -1.588993E-01  0.000000E+00  0.000000E+00  0.000000E+00  0.000000E+00  0.000000E+00  0.000000E+00  6.124153E-01  4.756258E-02 -1.588993E-01  0.000000E+00  0.000000E+00  0.000000E+00
    1311  6.123834E-01  4.729289E-02 -1.586640E-01  0.000000E+00  0.000000E+00  0.000000E+00  0.000000E+00  0.000000E+00  0.000000E+00  6.123834E-01  4.729289E-02 -1.586640E-01  0.000000E+00  0.000000E+00  0.000000E+00
    1321  6.120782E-01  4.698233E-02 -1.583309E-01  0.000000E+00  0.000000E+00  0.000000E+00  0.000000E+00  0.000000E+00  0.000000E+00  6.120782E-01  4.698233E-02 -1.583309E-01  0.000000E+00  0.000000E+00  0.000000E+00
    1331  6.115265E-01  4.664001E-02 -1.579147E-01  0.000000E+00  0.000000E+00  0.000000E+00  0.000000E+00  0.000000E+00  0.000000E+00  6.115265E-01  4.664001E-02 -1.579147E-01  0.000000E+00  0.000000E+00  0.000000E+00
    1341  6.107850E-01  4.627959E-02 -1.574432E-01  0.000000E+00  0.000000E+00  0.000000E+00  0.000000E+00  0.000000E+00  0.000000E+00  6.107850E-01  4.627959E-02 -1.574432E-01  0.000000E+00  0.000000E+00  0.000000E+00
    1351  6.099334E-01  4.591811E-02 -1.569545E-01  0.000000E+00  0.000000E+00  0.000000E+00  0.000000E+00  0.000000E+00  0.000000E+00  6.099334E-01  4.591811E-02 -1.569545E-01  0.000000E+00  0.000000E+00  0.000000E+00