 variables = x,y,"-cp"
 zone t="Cp_jmin_000"
  0.999901036689427      -1.438201154477405E-005 -5.004178574299889E-002
  0.999694849639698      -4.433878394527676E-005 -4.856502784766858E-002
  0.999471457044767      -7.678516570916535E-005 -4.857171509080738E-002
  0.999229433009151      -1.119351872218389E-004 -4.803140752946478E-002
  0.998967231722420      -1.499986690511435E-004 -4.770088878443879E-002
  0.998683181823514      -1.912078565131687E-004 -4.728258855713596E-002
  0.998375479381158      -2.358394108184670E-004 -4.689219029476366E-002
  0.998042172631888      -2.841848128453211E-004 -4.647828514665164E-002
  0.997681144537264      -3.365111952199675E-004 -4.606496866809007E-002
  0.997290110610486      -3.931333799421472E-004 -4.564184648583325E-002
  0.996866609714277      -4.544436015688823E-004 -4.520579450043183E-002
  0.996407979180273      -5.208395406005970E-004 -4.475752166699820E-002
  0.995911330769309      -5.926648277141595E-004 -4.429971133319377E-002
  0.995373553322796      -6.703413130624667E-004 -4.382418940860466E-002
  0.994791302447734      -7.544191472102226E-004 -4.333682621885915E-002
  0.994160961879245      -8.454387107432190E-004 -4.281606182515407E-002
  0.993478605833100      -9.438069532774860E-004 -4.229474458047955E-002
  0.992740024637728      -1.050120877354764E-003 -4.173963324850938E-002
  0.991940704001005      -1.165177846065212E-003 -4.115219608032650E-002
  0.991075739240897      -1.289542745202006E-003 -4.054966130615201E-002
  0.990139854226810      -1.423850871937378E-003 -3.990908138817284E-002
  0.989127407965195      -1.569033645803364E-003 -3.922981985651397E-002
  0.988032309338146      -1.725912456346903E-003 -3.851790140471145E-002
  0.986847988777956      -1.895197373064347E-003 -3.776579215858478E-002
  0.985567445047636      -2.078017021053428E-003 -3.696141245231654E-002
  0.984183134935553      -2.275355794470929E-003 -3.611405727196138E-002
  0.982686950651476      -2.488111897379464E-003 -3.521871724601366E-002
  0.981070283856444      -2.717765049792072E-003 -3.424313529910927E-002
  0.979323822809217      -2.965169206971251E-003 -3.324886814223982E-002
  0.977437674783382      -3.231638924822782E-003 -3.214624989941584E-002
  0.975401311643326      -3.518778878205071E-003 -3.101440597157712E-002
  0.973203434186103      -3.827740415357508E-003 -2.979017556976604E-002
  0.970832089848265      -4.160252963783775E-003 -2.848913519024032E-002
  0.968274510352013      -4.517656241893913E-003 -2.714706377683962E-002
  0.965517205518267      -4.901735795903623E-003 -2.566210378800493E-002
  0.962545856985965      -5.314096152677030E-003 -2.418307685331555E-002
  0.959345348602296      -5.756486401209208E-003 -2.254789625161591E-002
  0.955899768014636      -6.230865535969582E-003 -2.087135401761175E-002
  0.952192326065171      -6.738827172269944E-003 -1.913800276732625E-002
  0.948205528126510      -7.282785808824490E-003 -1.724350566512989E-002
  0.943920927438716      -7.864031637407815E-003 -1.539722026272150E-002
  0.939319436050898      -8.484788640032118E-003 -1.337785835035898E-002
  0.934381256447932      -9.147375810369188E-003 -1.133429795290564E-002
  0.929085760411976      -9.852845123685342E-003 -9.270039283055365E-003
  0.923411957576804      -1.060387854510685E-002 -7.099625313689018E-003
  0.917338301331815      -1.140259645894358E-002 -4.873874966486280E-003
  0.910842672091623      -1.224945780384571E-002 -2.709285444299159E-003
  0.903902934488028      -1.314637863285233E-002 -4.443337274513404E-004
  0.896496996320902      -1.409587524212469E-002  1.795612347206266E-003
  0.888602757596857      -1.509910284169805E-002  4.073203639251233E-003
  0.880198410926427      -1.615632802232875E-002  6.322539545443595E-003
  0.871262801958185      -1.726768552580072E-002  8.497860328645856E-003
  0.861775847922212      -1.843419903075212E-002  1.066280540933806E-002
  0.851718685983071      -1.965640415779817E-002  1.277665859093835E-002
  0.841073968747992      -2.093388515101843E-002  1.480289376965604E-002
  0.829826304610176      -2.226578772895235E-002  1.678692909345658E-002
  0.817962649142221      -2.365078170607101E-002  1.866706627425518E-002
  0.805472711125871      -2.508702431525892E-002  2.044473393431678E-002
  0.792349366039704      -2.657212500253204E-002  2.213857321401602E-002
  0.778589068327765      -2.810311264980000E-002  2.370073702184761E-002
  0.764192252334772      -2.967640636653989E-002  2.514308261997122E-002
  0.749163710505883      -3.128779116418917E-002  2.652845322916697E-002
  0.733512786417905      -3.293094272277818E-002  2.766136870713809E-002
  0.717253865540819      -3.459924250550806E-002  2.866985412335366E-002
  0.700406774779677      -3.628742751082444E-002  2.952849606175190E-002
  0.682996682429761      -3.798917514195270E-002  3.020146253512346E-002
  0.665054153964236      -3.969693207546836E-002  3.083930804490920E-002
  0.646614951929252      -4.139990135340135E-002  3.114570822039209E-002
  0.627720189103518      -4.308704309437720E-002  3.122954159924252E-002
  0.608416437015914      -4.475112151366507E-002  3.109470859266605E-002
  0.588754938035307      -4.638417730094366E-002  3.090977192468358E-002
  0.568790597199374      -4.797059236360566E-002  3.010543727910875E-002
  0.548582355683681      -4.949860753708847E-002  2.909747011894814E-002
  0.528192702380974      -5.096299098463154E-002  2.782535142894726E-002
  0.507685801203611      -5.235007411813461E-002  2.603786992432755E-002
  0.487127298884429      -5.364551210604034E-002  2.366537364827326E-002
  0.466584070280482      -5.484365745587879E-002  2.097693018946623E-002
  0.446122642496232      -5.593656205053190E-002  1.778130972066716E-002
  0.425808112005379      -5.690873480176196E-002  1.358469977553534E-002
  0.405704258511259      -5.775538187230993E-002  8.871036891157535E-003
  0.385872439408809      -5.847730301479206E-002  3.710471281367589E-003
  0.366370107700743      -5.905943927397766E-002 -2.998299079355782E-003
  0.347251138959864      -5.949678417017554E-002 -1.019505324605907E-002
  0.328565272432459      -5.979681865774525E-002 -1.858784644085132E-002
  0.310357084272810      -5.995936260311839E-002 -2.751617336962076E-002
  0.292666038436822      -5.997424577553107E-002 -3.830448442301737E-002
  0.275526342270472      -5.984333551911108E-002 -4.975236276894268E-002
  0.258966719358373      -5.958007639650599E-002 -6.245957291448567E-002
  0.243010402247484      -5.918846746271154E-002 -7.615797024502324E-002
  0.227675313889136      -5.867348200350751E-002 -9.094467358081193E-002
  0.212974332671116      -5.803948207164759E-002 -0.106671891415013     
  0.198915682585232      -5.728881518763976E-002 -0.123684082354954     
  0.185502688789305      -5.643128510725968E-002 -0.141389063820560     
  0.172734217488895      -5.548008027404536E-002 -0.159916817184078     
  0.160605523034368      -5.444353102461935E-002 -0.179054291664212     
  0.149108410853820      -5.333022867657388E-002 -0.198651152369657     
  0.138231637096210      -5.214893011788994E-002 -0.218544542405094     
  0.127961302815210      -5.090847827795564E-002 -0.238573280303625     
  0.118281233308736      -4.961774151957353E-002 -0.258558596072562     
  0.109173334039380      -4.828557488582750E-002 -0.278102940970926     
  0.100619352473058      -4.691268280442117E-002 -0.297633008446669     
  9.259932167578322E-002 -4.550404986317674E-002 -0.316324019310136     
  8.509082500320453E-002 -4.407374508092853E-002 -0.334317121269910     
  7.807129914897593E-002 -4.263126142393887E-002 -0.351308358840294     
  7.151779012549453E-002 -4.118490260629624E-002 -0.367066713901361     
  6.540868179836479E-002 -3.973604924040557E-002 -0.381595246680632     
  5.972538454240184E-002 -3.827601692707851E-002 -0.395167588838950     
  5.444447767232785E-002 -3.681652512757678E-002 -0.406961502506004     
  4.953923882882172E-002 -3.537963756867354E-002 -0.416947640597972     
  4.499484238040496E-002 -3.394792731793951E-002 -0.426124260244826     
  4.079283231808140E-002 -3.251979480296933E-002 -0.433374236445726     
  3.690382155082184E-002 -3.112647535564832E-002 -0.438241716911387     
  3.331897338690382E-002 -2.974308438615302E-002 -0.443177324242232     
  3.001992853400259E-002 -2.837272662995695E-002 -0.444870702451967     
  2.698146395291323E-002 -2.703744387458767E-002 -0.445952556256973     
  2.419521817029124E-002 -2.572017851393302E-002 -0.445486067029222     
  2.163886985022512E-002 -2.443602799853272E-002 -0.442838077464508     
  1.930380911958252E-002 -2.317528402219218E-002 -0.440184789528903     
  1.717159457934081E-002 -2.194557498080656E-002 -0.434454068748359     
  1.523173633144437E-002 -2.074551827938654E-002 -0.429455881089525     
  1.347124070536088E-002 -1.957452573790441E-002 -0.421514543370153     
  1.187502616326441E-002 -1.844066995672238E-002 -0.413895275933170     
  1.043809851605715E-002 -1.733430489920384E-002 -0.404685886537810     
  9.136461311411770E-003 -1.627385726785402E-002 -0.394311729682331     
  7.977160035893105E-003 -1.524010552122804E-002 -0.384252680753215     
  6.935962262663908E-003 -1.424726689067101E-002 -0.372059043905718     
  6.007649260728942E-003 -1.329584607266419E-002 -0.360381449529455     
  5.197942384246534E-003 -1.236975213659182E-002 -0.347767342831084     
  4.463145226993981E-003 -1.150015319028689E-002 -0.334319281361457     
  3.822031769330381E-003 -1.066772931847954E-002 -0.320954083204241     
  3.279846165163414E-003 -9.860750285176443E-003 -0.307092271635756     
  2.790912267504275E-003 -9.105798252013814E-003 -0.292718046705976     
  2.350526001678399E-003 -8.401803031976705E-003 -0.278132649762640     
  1.991903883693968E-003 -7.724795289140971E-003 -0.263255495645427     
  1.697401034548296E-003 -7.079089817105916E-003 -0.248481819720084     
  1.425328203884413E-003 -6.482562768008258E-003 -0.233221428947797     
  1.174003083752484E-003 -5.931525636110130E-003 -0.217713130925637     
  9.709265006891954E-004 -5.412089117667584E-003 -0.201918290945813     
  8.238867579573039E-004 -4.917756269746139E-003 -0.186550774449143     
  6.995521017549855E-004 -4.457114441382819E-003 -0.170834875209716     
  5.847380853111206E-004 -4.031745199436594E-003 -0.154987705690405     
  4.787230618852334E-004 -3.638974947630218E-003 -0.138842072580665     
  3.808389906723164E-004 -3.276328691885235E-003 -0.122353215079768     
  2.904676175868870E-004 -2.941515890682194E-003 -0.106315410270525     
  2.333762907558157E-004 -2.627730745651859E-003 -8.923653825343880E-002
  2.071227178881418E-004 -2.333353192432223E-003 -7.402137427341549E-002
  1.829994274494817E-004 -2.061590841441674E-003 -5.773682282360637E-002
  1.607319663670115E-004 -1.810735445501646E-003 -4.151577340520785E-002
  1.401783810204282E-004 -1.579187817730839E-003 -2.516185595862686E-002
  1.212074545433595E-004 -1.365469726784322E-003 -8.584566444957087E-003
  1.036979128065108E-004 -1.168214951806617E-003  8.163721626429199E-003
  8.753768641556192E-005 -9.861609684275415E-004  2.492561878616706E-002
  7.262322518397646E-005 -8.181412259154610E-004  4.202406375226331E-002
  5.885886169931798E-005 -6.630779773923135E-004  5.915462626466539E-002
  4.615622076353798E-005 -5.199756268522191E-004  7.642293365995312E-002
  3.443367165412159E-005 -3.879145585791283E-004  9.396718021196526E-002
  2.361582031673581E-005 -2.660454164071133E-004  0.111465514524696     
  1.363303875945299E-005 -1.535838020872810E-004  0.129327366907090     
  4.421029079937355E-006 -4.980536380928741E-005  0.146983811633869     
  4.421029079937355E-006  4.980536380925416E-005  0.165211691468710     
  1.363303875945299E-005  1.535838020872856E-004  0.182376159049932     
  2.361582031673581E-005  2.660454164071646E-004  0.200427949513933     
  3.443367165412159E-005  3.879145585791394E-004  0.218599166729561     
  4.615622076353798E-005  5.199756268521838E-004  0.237394414849371     
  5.885886169942900E-005  6.630779773923243E-004  0.256474372946159     
  7.262322518408748E-005  8.181412259154934E-004  0.276123956665911     
  8.753768641556192E-005  9.861609684275543E-004  0.296357663675861     
  1.036979128065108E-004  1.168214951806632E-003  0.317020814920099     
  1.212074545433595E-004  1.365469726784401E-003  0.338498059818754     
  1.401783810204282E-004  1.579187817730990E-003  0.360575289897017     
  1.607319663670115E-004  1.810735445501831E-003  0.383388948128423     
  1.829994274494817E-004  2.061590841441825E-003  0.407064093531641     
  2.071227178881418E-004  2.333353192432302E-003  0.431735433668220     
  2.333762907559267E-004  2.627730745651989E-003  0.456667754244403     
  2.904676175869980E-004  2.941515890682324E-003  0.483511622983399     
  3.808389906723164E-004  3.276328691885331E-003  0.507594158152472     
  4.787230618852334E-004  3.638974947630303E-003  0.534213033799025     
  5.847380853111206E-004  4.031745199436690E-003  0.561337745860840     
  6.995521017549855E-004  4.457114441382969E-003  0.589734516519312     
  8.238867579573039E-004  4.917756269746217E-003  0.619473775806982     
  9.709265006891954E-004  5.412089117667598E-003  0.649978497321880     
  1.174003083752484E-003  5.931525636110182E-003  0.681402079805612     
  1.425328203884413E-003  6.482562768008291E-003  0.710645108721965     
  1.697401034548296E-003  7.079089817105910E-003  0.742917434715594     
  1.991903883693968E-003  7.724795289140960E-003  0.775254670414702     
  2.350526001678399E-003  8.401803031976737E-003  0.810607039026355     
  2.790912267504275E-003  9.105798252013898E-003  0.842043106891059     
  3.279846165163414E-003  9.860750285176526E-003  0.875851713261159     
  3.822031769330492E-003  1.066772931847965E-002  0.910122549371093     
  4.463145226994203E-003  1.150015319028706E-002  0.946082767318285     
  5.197942384246756E-003  1.236975213659205E-002  0.977858117333771     
  6.007649260729164E-003  1.329584607266442E-002   1.01255649156588     
  6.935962262664130E-003  1.424726689067121E-002   1.04803824746791     
  7.977160035893327E-003  1.524010552122821E-002   1.07819855571705     
  9.136461311411881E-003  1.627385726785411E-002   1.11353861672658     
  1.043809851605715E-002  1.733430489920386E-002   1.14347217779541     
  1.187502616326441E-002  1.844066995672239E-002   1.17412487552617     
  1.347124070536088E-002  1.957452573790444E-002   1.20471573884005     
  1.523173633144437E-002  2.074551827938657E-002   1.23032003193673     
  1.717159457934081E-002  2.194557498080656E-002   1.25913107880343     
  1.930380911958240E-002  2.317528402219212E-002   1.28029227281451     
  2.163886985022490E-002  2.443602799853265E-002   1.30486573958758     
  2.419521817029113E-002  2.572017851393298E-002   1.32217306473034     
  2.698146395291312E-002  2.703744387458762E-002   1.34032191192188     
  3.001992853400237E-002  2.837272662995684E-002   1.35443204588972     
  3.331897338690348E-002  2.974308438615288E-002   1.36429335311470     
  3.690382155082150E-002  3.112647535564820E-002   1.37490017891422     
  4.079283231808117E-002  3.251979480296922E-002   1.37750985567810     
  4.499484238040474E-002  3.394792731793937E-002   1.38013972714573     
  4.953923882882139E-002  3.537963756867342E-002   1.37944073598019     
  5.444447767232741E-002  3.681652512757666E-002   1.37330318793978     
  5.972538454240139E-002  3.827601692707838E-002   1.36540644864544     
  6.540868179836423E-002  3.973604924040544E-002   1.35434771596277     
  7.151779012549386E-002  4.118490260629609E-002   1.33871361408084     
  7.807129914897515E-002  4.263126142393869E-002   1.32018649031706     
  8.509082500320364E-002  4.407374508092836E-002   1.29866557733026     
  9.259932167578233E-002  4.550404986317659E-002   1.27438919169969     
  0.100619352473057       4.691268280442101E-002   1.24722536517013     
  0.109173334039379       4.828557488582733E-002   1.21762969221988     
  0.118281233308735       4.961774151957337E-002   1.18507539380023     
  0.127961302815209       5.090847827795549E-002   1.15089317892556     
  0.138231637096209       5.214893011788979E-002   1.11500696129871     
  0.149108410853819       5.333022867657373E-002   1.07784368439034     
  0.160605523034367       5.444353102461922E-002   1.03956703974321     
  0.172734217488894       5.548008027404523E-002   1.00061094653405     
  0.185502688789304       5.643128510725957E-002  0.961197284471303     
  0.198915682585230       5.728881518763965E-002  0.921517888011189     
  0.212974332671114       5.803948207164750E-002  0.882110584576848     
  0.227675313889134       5.867348200350744E-002  0.842467055470761     
  0.243010402247482       5.918846746271147E-002  0.803465676763601     
  0.258966719358371       5.958007639650598E-002  0.765038627460897     
  0.275526342270470       5.984333551911108E-002  0.727508690310342     
  0.292666038436820       5.997424577553106E-002  0.690690971563922     
  0.310357084272807       5.995936260311840E-002  0.655226501961688     
  0.328565272432456       5.979681865774529E-002  0.619872362961565     
  0.347251138959861       5.949678417017558E-002  0.586115469318974     
  0.366370107700740       5.905943927397773E-002  0.553132170942142     
  0.385872439408806       5.847730301479220E-002  0.521759074485702     
  0.405704258511256       5.775538187231009E-002  0.490678962406822     
  0.425808112005375       5.690873480176212E-002  0.461057341166996     
  0.446122642496228       5.593656205053207E-002  0.432775587024068     
  0.466584070280478       5.484365745587899E-002  0.405164955467558     
  0.487127298884425       5.364551210604056E-002  0.378764962119695     
  0.507685801203607       5.235007411813486E-002  0.353613206700119     
  0.528192702380970       5.096299098463181E-002  0.329376372808482     
  0.548582355683677       4.949860753708876E-002  0.306203726039214     
  0.568790597199370       4.797059236360596E-002  0.284104135536328     
  0.588754938035303       4.638417730094397E-002  0.263141281150110     
  0.608416437015910       4.475112151366539E-002  0.243028187832664     
  0.627720189103514       4.308704309437753E-002  0.223959988181982     
  0.646614951929248       4.139990135340171E-002  0.205918647912963     
  0.665054153964232       3.969693207546873E-002  0.188858800342601     
  0.682996682429757       3.798917514195309E-002  0.172555808854210     
  0.700406774779673       3.628742751082484E-002  0.157313902675578     
  0.717253865540815       3.459924250550842E-002  0.142897493570158     
  0.733512786417902       3.293094272277854E-002  0.129277093583829     
  0.749163710505879       3.128779116418955E-002  0.116602155615046     
  0.764192252334769       2.967640636654027E-002  0.104546737981495     
  0.778589068327761       2.810311264980035E-002  9.332034255278931E-002
  0.792349366039701       2.657212500253238E-002  8.285570713106871E-002
  0.805472711125868       2.508702431525927E-002  7.300644731755335E-002
  0.817962649142218       2.365078170607138E-002  6.388813488570189E-002
  0.829826304610173       2.226578772895270E-002  5.539229782497390E-002
  0.841073968747989       2.093388515101875E-002  4.744134347350615E-002
  0.851718685983068       1.965640415779848E-002  4.016238467155642E-002
  0.861775847922210       1.843419903075244E-002  3.335307490879735E-002
  0.871262801958183       1.726768552580103E-002  2.706144648202535E-002
  0.880198410926424       1.615632802232904E-002  2.131944252128304E-002
  0.888602757596855       1.509910284169834E-002  1.595969379626894E-002
  0.896496996320900       1.409587524212496E-002  1.106249379177604E-002
  0.903902934488026       1.314637863285260E-002  6.589557598063900E-003
  0.910842672091621       1.224945780384598E-002  2.431227949149628E-003
  0.917338301331813       1.140259645894383E-002 -1.276519700262657E-003
  0.923411957576802       1.060387854510708E-002 -4.725184064061416E-003
  0.929085760411975       9.852845123685578E-003 -7.877326482389257E-003
  0.934381256447930       9.147375810369410E-003 -1.067828310087027E-002
  0.939319436050896       8.484788640032329E-003 -1.327352382275082E-002
  0.943920927438715       7.864031637408016E-003 -1.562805578203585E-002
  0.948205528126508       7.282785808824687E-003 -1.770625393872294E-002
  0.952192326065169       6.738827172270148E-003 -1.965940596685822E-002
  0.955899768014634       6.230865535969765E-003 -2.136397197221784E-002
  0.959345348602295       5.756486401209352E-003 -2.292006667034219E-002
  0.962545856985963       5.314096152677136E-003 -2.435430072797162E-002
  0.965517205518266       4.901735795903727E-003 -2.558433851441055E-002
  0.968274510352011       4.517656241894034E-003 -2.675449589200962E-002
  0.970832089848264       4.160252963783896E-003 -2.777439616984401E-002
  0.973203434186103       3.827740415357626E-003 -2.869993407219518E-002
  0.975401311643325       3.518778878205195E-003 -2.955189964322624E-002
  0.977437674783382       3.231638924822898E-003 -3.029838506386273E-002
  0.979323822809216       2.965169206971359E-003 -3.099621592303414E-002
  0.981070283856443       2.717765049792180E-003 -3.161950921028467E-002
  0.982686950651475       2.488111897379563E-003 -3.218712430820325E-002
  0.984183134935553       2.275355794471010E-003 -3.271165296652390E-002
  0.985567445047635       2.078017021053502E-003 -3.318773099333772E-002
  0.986847988777955       1.895197373064412E-003 -3.362731436413746E-002
  0.988032309338146       1.725912456346964E-003 -3.403558847268906E-002
  0.989127407965195       1.569033645803426E-003 -3.440966677131607E-002
  0.990139854226809       1.423850871937428E-003 -3.476342250821851E-002
  0.991075739240897       1.289542745202041E-003 -3.509108460250365E-002
  0.991940704001005       1.165177846065241E-003 -3.539706590829894E-002
  0.992740024637728       1.050120877354804E-003 -3.568920581614954E-002
  0.993478605833100       9.438069532775259E-004 -3.596085882270739E-002
  0.994160961879245       8.454387107432533E-004 -3.622005871022749E-002
  0.994791302447733       7.544191472102573E-004 -3.646568614072088E-002
  0.995373553322796       6.703413130624964E-004 -3.669598289140685E-002
  0.995911330769309       5.926648277141797E-004 -3.692521212047772E-002
  0.996407979180273       5.208395406006104E-004 -3.712205746041430E-002
  0.996866609714277       4.544436015688968E-004 -3.734678693281257E-002
  0.997290110610486       3.931333799421647E-004 -3.748430004982506E-002
  0.997681144537264       3.365111952199938E-004 -3.777488001731344E-002
  0.998042172631888       2.841848128453584E-004 -3.744804388264500E-002
  0.998375479381157       2.358394108185026E-004 -3.789573330707796E-002
  0.998683181823514       1.912078565131975E-004 -3.125716112860477E-002
  0.998967231722420       1.499986690511828E-004 -4.280815417263817E-002
  0.999229433009151       1.119351872218831E-004 -4.349892531670774E-002
  0.999471457044767       7.678516570920785E-005 -4.360187343711042E-002
  0.999694849639698       4.433878394532627E-005 -4.594756260329369E-002
  0.999901036689427       1.438201154480178E-005 -4.802440984515544E-002
