 variables=iter,pressure
 zone t="error", f=point
       1,  0.000000
      11, -0.166852
      21, -0.248858
      31, -0.260848
      41, -0.262092
      51, -0.256041
      61, -0.260060
      71, -0.270238
      81, -0.281096
      91, -0.288973
     101, -0.290434
     111, -0.293495
     121, -0.301794
     131, -0.310403
     141, -0.316553
     151, -0.321278
     161, -0.327509
     171, -0.337308
     181, -0.350677
     191, -0.366299
     201, -0.382563
     211, -0.398355
     221, -0.413200
     231, -0.426852
     241, -0.439042
     251, -0.449623
     261, -0.458639
     271, -0.466215
     281, -0.472559
     291, -0.478132
     301, -0.483545
     311, -0.489064
     321, -0.494487
     331, -0.499603
     341, -0.504401
     351, -0.509003
     361, -0.513823
     371, -0.519175
     381, -0.524667
     391, -0.530480
     401, -0.538244
     411, -0.548577
     421, -0.559585
     431, -0.569100
     441, -0.576900
     451, -0.584091
     461, -0.591499
     471, -0.599263
     481, -0.607179
     491, -0.614930
     501, -0.622356
     511, -0.629728
     521, -0.637498
     531, -0.645704
     541, -0.653722
     551, -0.660936
     561, -0.667854
     571, -0.675715
     581, -0.684569
     591, -0.693131
     601, -0.700764
     611, -0.707997
     621, -0.715300
     631, -0.722689
     641, -0.730116
     651, -0.737616
     661, -0.745247
     671, -0.753004
     681, -0.760716
     691, -0.768085
     701, -0.774873
     711, -0.781034
     721, -0.786678
     731, -0.792013
     741, -0.797354
     751, -0.803041
     761, -0.809226
     771, -0.815739
     781, -0.822307
     791, -0.828641
     801, -0.834486
     811, -0.839587
     821, -0.844062
     831, -0.848221
     841, -0.852835
     851, -0.858991
     861, -0.867298
     871, -0.877024
     881, -0.886351
     891, -0.893912
     901, -0.899808
     911, -0.904725
     921, -0.908567
     931, -0.910682
     941, -0.910932
     951, -0.910343
     961, -0.910626
     971, -0.913014
     981, -0.917733
     991, -0.924055
    1001, -0.930884
    1011, -0.937403
    1021, -0.943346
    1031, -0.948815
    1041, -0.953933
    1051, -0.958664
    1061, -0.962871
    1071, -0.966473
    1081, -0.969609
    1091, -0.972688
    1101, -0.976255
    1111, -0.980590
    1121, -0.985271
    1131, -0.989108
    1141, -0.990778
    1151, -0.989867
    1161, -0.987451
    1171, -0.985550
    1181, -0.985862
    1191, -0.988697
    1201, -0.992745
    1211, -0.995890
    1221, -0.996706
    1231, -0.995567
    1241, -0.994359
    1251, -0.995147
    1261, -0.998924
    1271, -1.005091
    1281, -1.011581
    1291, -1.015574
    1301, -1.014803
    1311, -1.008902
    1321, -0.999695
    1331, -0.990109
    1341, -0.982776
    1351, -0.979321
    1361, -0.980284
    1371, -0.985138
    1381, -0.992168
    1391, -0.998613
    1401, -1.001582
    1411, -0.999461
    1421, -0.992649
    1431, -0.983065
    1441, -0.973250
    1451, -0.965700
    1461, -0.962094
    1471, -0.962204
    1481, -0.963369
    1491, -0.961892
    1501, -0.956265
    1511, -0.948975
    1521, -0.944430
    1531, -0.945336
    1541, -0.950898
    1551, -0.957683
    1561, -0.962396
    1571, -0.964477
    1581, -0.965977
    1591, -0.968962
    1601, -0.973043
    1611, -0.974798
    1621, -0.969732
    1631, -0.956001
    1641, -0.936514
    1651, -0.916969
    1661, -0.902382
    1671, -0.895324
    1681, -0.896056
    1691, -0.903394
    1701, -0.915536
    1711, -0.930551
    1721, -0.946507
    1731, -0.961378
    1741, -0.972887
    1751, -0.978486
    1761, -0.975927
    1771, -0.964599
    1781, -0.946661
    1791, -0.926523
    1801, -0.909029
    1811, -0.897936
    1821, -0.895404
    1831, -0.902031
    1841, -0.916877
    1851, -0.937255
    1861, -0.958621
    1871, -0.975371
    1881, -0.983126
    1891, -0.981239
    1901, -0.972907
    1911, -0.962739
    1921, -0.954381
    1931, -0.949646
    1941, -0.948730
    1951, -0.950801
    1961, -0.954671
    1971, -0.959422
    1981, -0.964857
    1991, -0.971520
    2001, -0.980234
    2011, -0.991353
    2021, -1.004073
    2031, -1.016193
    2041, -1.024699
    2051, -1.027244
    2061, -1.023616
    2071, -1.015956
    2081, -1.007261
    2091, -0.999902
    2101, -0.994890
    2111, -0.992143
    2121, -0.991136
    2131, -0.991620
    2141, -0.993975
    2151, -0.999107
    2161, -1.008046
    2171, -1.021498
    2181, -1.039449
    2191, -1.060753
    2201, -1.082724
    2211, -1.101050
    2221, -1.110795
    2231, -1.108784
    2241, -1.095706
    2251, -1.075671
    2261, -1.053828
    2271, -1.034466
    2281, -1.020528
    2291, -1.013890
    2301, -1.015697
    2311, -1.026501
    2321, -1.046145
    2331, -1.073429
    2341, -1.105573
    2351, -1.137697
    2361, -1.163107
    2371, -1.175489
    2381, -1.172705
    2391, -1.158159
    2401, -1.138211
    2411, -1.119138
    2421, -1.104558
    2431, -1.096366
    2441, -1.094733
    2451, -1.098672
    2461, -1.106474
    2471, -1.116194
    2481, -1.126182
    2491, -1.135470
    2501, -1.143778
    2511, -1.151174
    2521, -1.157658
    2531, -1.162979
    2541, -1.166749
    2551, -1.168669
    2561, -1.168634
    2571, -1.166690
    2581, -1.163017
    2591, -1.158055
    2601, -1.152672
    2611, -1.148162
    2621, -1.145988
    2631, -1.147397
    2641, -1.153089
    2651, -1.162984
    2661, -1.176096
    2671, -1.190491
    2681, -1.203484
    2691, -1.212230
    2701, -1.214721
    2711, -1.210646
    2721, -1.201492
    2731, -1.189794
    2741, -1.178191
    2751, -1.168830
    2761, -1.163187
    2771, -1.162097
    2781, -1.165827
    2791, -1.174108
    2801, -1.186096
    2811, -1.200327
    2821, -1.214737
    2831, -1.226907
    2841, -1.234640
    2851, -1.236724
    2861, -1.233419
    2871, -1.226270
    2881, -1.217376
    2891, -1.208647
    2901, -1.201398
    2911, -1.196323
    2921, -1.193662
    2931, -1.193422
    2941, -1.195513
    2951, -1.199780
    2961, -1.205919
    2971, -1.213368
    2981, -1.221247
    2991, -1.228420
    3001, -1.233705
    3011, -1.236174
    3021, -1.235452
    3031, -1.231859
    3041, -1.226318
    3051, -1.220093
    3061, -1.214469
    3071, -1.210478
    3081, -1.208719
    3091, -1.209266
    3101, -1.211645
    3111, -1.214921
    3121, -1.217891
    3131, -1.219433
    3141, -1.218935
    3151, -1.216603
    3161, -1.213493
    3171, -1.211208
    3181, -1.211432
    3191, -1.215460
    3201, -1.223824
    3211, -1.235991
    3221, -1.250159
    3231, -1.263287
    3241, -1.271690
    3251, -1.272369
    3261, -1.264513
    3271, -1.249948
    3281, -1.232145
    3291, -1.214754
    3301, -1.200660
    3311, -1.191731
    3321, -1.188887
    3331, -1.192228
    3341, -1.201088
    3351, -1.214048
    3361, -1.229012
    3371, -1.243523
    3381, -1.255385
    3391, -1.263422
    3401, -1.267882
    3411, -1.270156
    3421, -1.271995
    3431, -1.274710
    3441, -1.278659
    3451, -1.283071
    3461, -1.286193
    3471, -1.285839
    3481, -1.280344
    3491, -1.269506
    3501, -1.254910
    3511, -1.239377
    3521, -1.226028
    3531, -1.217569
    3541, -1.215973
    3551, -1.222413
    3561, -1.237214
    3571, -1.259659
    3581, -1.287576
    3591, -1.316830
    3601, -1.341344
    3611, -1.354818
    3621, -1.354166
    3631, -1.341647
    3641, -1.323039
    3651, -1.304135
    3661, -1.288798
    3671, -1.278804
    3681, -1.274343
    3691, -1.274540
    3701, -1.277907
    3711, -1.282805
    3721, -1.287951
    3731, -1.292809
    3741, -1.297655
    3751, -1.303266
    3761, -1.310391
    3771, -1.319268
    3781, -1.329380
    3791, -1.339518
    3801, -1.348165
    3811, -1.354086
    3821, -1.356847
    3831, -1.356939
    3841, -1.355439
    3851, -1.353486
    3861, -1.351876
    3871, -1.350943
    3881, -1.350661
    3891, -1.350865
    3901, -1.351431
    3911, -1.352360
    3921, -1.353724
    3931, -1.355561
    3941, -1.357797
    3951, -1.360266
    3961, -1.362825
    3971, -1.365497
    3981, -1.368546
    3991, -1.372416
    4001, -1.377548
    4011, -1.384141
    4021, -1.391961
    4031, -1.400255
    4041, -1.407845
    4051, -1.413414
    4061, -1.415931
    4071, -1.415054
    4081, -1.411283
    4091, -1.405805
    4101, -1.400129
    4111, -1.395711
    4121, -1.393691
    4131, -1.394751
    4141, -1.399043
    4151, -1.406146
    4161, -1.415059
    4171, -1.424280
    4181, -1.432050
    4191, -1.436798
    4201, -1.437674
    4211, -1.434901
    4221, -1.429705
    4231, -1.423882
    4241, -1.419290
    4251, -1.417467
    4261, -1.419462
    4271, -1.425770
    4281, -1.436302
    4291, -1.450320
    4301, -1.466357
    4311, -1.482194
    4321, -1.495074
    4331, -1.502323
    4341, -1.502281
    4351, -1.495012
    4361, -1.482240
    4371, -1.466575
    4381, -1.450642
    4391, -1.436570
    4401, -1.425863
    4411, -1.419479
    4421, -1.417953
    4431, -1.421503
    4441, -1.430078
    4451, -1.443363
    4461, -1.460739
    4471, -1.481182
    4481, -1.503145
    4491, -1.524454
    4501, -1.542397
    4511, -1.554188
    4521, -1.557841
    4531, -1.553033
    4541, -1.541285
    4551, -1.525274
    4561, -1.507840
    4571, -1.491301
    4581, -1.477230
    4591, -1.466529
    4601, -1.459616
    4611, -1.456598
    4621, -1.457405
    4631, -1.461869
    4641, -1.469756
    4651, -1.480751
    4661, -1.494412
    4671, -1.510095
    4681, -1.526876
    4691, -1.543488
    4701, -1.558330
    4711, -1.569622
    4721, -1.575748
    4731, -1.575711
    4741, -1.569504
    4751, -1.558151
    4761, -1.543405
    4771, -1.527286
    4781, -1.511703
    4791, -1.498258
    4801, -1.488207
    4811, -1.482483
    4821, -1.481745
    4831, -1.486393
    4841, -1.496537
    4851, -1.511918
    4861, -1.531744
    4871, -1.554481
    4881, -1.577648
    4891, -1.597831
    4901, -1.611266
    4911, -1.615117
    4921, -1.608836
    4931, -1.594439
    4941, -1.575433
    4951, -1.555388
    4961, -1.537081
    4971, -1.522304
    4981, -1.512014
    4991, -1.506551
    5001, -1.505817
    5011, -1.509409
    5021, -1.516703
    5031, -1.526920
    5041, -1.539169
    5051, -1.552474
    5061, -1.565788
    5071, -1.578015
    5081, -1.588065
    5091, -1.594975
    5101, -1.598087
    5111, -1.597221
    5121, -1.592752
    5131, -1.585533
    5141, -1.576696
    5151, -1.567412
    5161, -1.558712
    5171, -1.551387
    5181, -1.545962
    5191, -1.542722
    5201, -1.541750
    5211, -1.542977
    5221, -1.546207
    5231, -1.551130
    5241, -1.557314
    5251, -1.564185
    5261, -1.571034
    5271, -1.577059
    5281, -1.581499
    5291, -1.583816
    5301, -1.583878
    5311, -1.582051
    5321, -1.579130
    5331, -1.576148
    5341, -1.574130
    5351, -1.573872
    5361, -1.575792
    5371, -1.579828
    5381, -1.585410
    5391, -1.591501
    5401, -1.596765
    5411, -1.599881
    5421, -1.599965
    5431, -1.596899
    5441, -1.591410
    5451, -1.584826
    5461, -1.578688
    5471, -1.574387
    5481, -1.572956
    5491, -1.574990
    5501, -1.580641
    5511, -1.589632
    5521, -1.601268
    5531, -1.614428
    5541, -1.627588
    5551, -1.638932
    5561, -1.646626
    5571, -1.649274
    5581, -1.646399
    5591, -1.638670
    5601, -1.627713
    5611, -1.615629
    5621, -1.604474
    5631, -1.595934
    5641, -1.591177
    5651, -1.590830
    5661, -1.595002
    5671, -1.603292
    5681, -1.614809
    5691, -1.628200
    5701, -1.641772
    5711, -1.653745
    5721, -1.662624
    5731, -1.667578
    5741, -1.668603
    5751, -1.666394
    5761, -1.661998
    5771, -1.656462
    5781, -1.650624
    5791, -1.645063
    5801, -1.640155
    5811, -1.636161
    5821, -1.633299
    5831, -1.631777
    5841, -1.631774
    5851, -1.633401
    5861, -1.636648
    5871, -1.641341
    5881, -1.647129
    5891, -1.653503
    5901, -1.659866
    5911, -1.665630
    5921, -1.670339
    5931, -1.673767
    5941, -1.675944
    5951, -1.677118
    5961, -1.677639
    5971, -1.677829
    5981, -1.677858
    5991, -1.677686
    6001, -1.677069
    6011, -1.675640
    6021, -1.673049
    6031, -1.669134
    6041, -1.664036
    6051, -1.658236
    6061, -1.652480
    6071, -1.647640
    6081, -1.644556
    6091, -1.643916
    6101, -1.646174
    6111, -1.651517
    6121, -1.659846
    6131, -1.670785
    6141, -1.683672
    6151, -1.697575
    6161, -1.711313
    6171, -1.723513
    6181, -1.732746
    6191, -1.737741
    6201, -1.737659
    6211, -1.732330
    6221, -1.722328
    6231, -1.708848
    6241, -1.693425
    6251, -1.677650
    6261, -1.662962
    6271, -1.650546
    6281, -1.641315
    6291, -1.635923
    6301, -1.634801
    6311, -1.638165
    6321, -1.646020
    6331, -1.658125
    6341, -1.673939
    6351, -1.692547
    6361, -1.712596
    6371, -1.732303
    6381, -1.749604
    6391, -1.762519
    6401, -1.769644
    6411, -1.770560
    6421, -1.765871
    6431, -1.756882
    6441, -1.745127
    6451, -1.732010
    6461, -1.718661
    6471, -1.705955
    6481, -1.694588
    6491, -1.685155
    6501, -1.678195
    6511, -1.674187
    6521, -1.673518
    6531, -1.676436
    6541, -1.682986
    6551, -1.692947
    6561, -1.705769
    6571, -1.720538
    6581, -1.735987
    6591, -1.750607
    6601, -1.762883
    6611, -1.771608
    6621, -1.776168
    6631, -1.776635
    6641, -1.773636
    6651, -1.768087
    6661, -1.760951
    6671, -1.753114
    6681, -1.745366
    6691, -1.738446
    6701, -1.733068
    6711, -1.729907
    6721, -1.729540
    6731, -1.732354
    6741, -1.738422
    6751, -1.747390
    6761, -1.758372
    6771, -1.769929
    6781, -1.780207
    6791, -1.787326
    6801, -1.789967
    6811, -1.787878
    6821, -1.781981
    6831, -1.773986
    6841, -1.765797
    6851, -1.759031
    6861, -1.754788
    6871, -1.753605
    6881, -1.755529
    6891, -1.760205
    6901, -1.766993
    6911, -1.775084
    6921, -1.783633
    6931, -1.791901
    6941, -1.799351
    6951, -1.805699
    6961, -1.810866
    6971, -1.814873
    6981, -1.817716
    6991, -1.819283
    7001, -1.819344
    7011, -1.817633
    7021, -1.813994
    7031, -1.808520
    7041, -1.801627
    7051, -1.794021
    7061, -1.786580
    7071, -1.780201
    7081, -1.775666
    7091, -1.773555
    7101, -1.774209
    7111, -1.777719
    7121, -1.783944
    7131, -1.792533
    7141, -1.802952
    7151, -1.814522
    7161, -1.826457
    7171, -1.837909
    7181, -1.848032
    7191, -1.856051
    7201, -1.861349
    7211, -1.863553
    7221, -1.862610
    7231, -1.858800
    7241, -1.852709
    7251, -1.845125
    7261, -1.836929
    7271, -1.828974
    7281, -1.822013
    7291, -1.816647
    7301, -1.813314
    7311, -1.812290
    7321, -1.813697
    7331, -1.817511
    7341, -1.823562
    7351, -1.831532
    7361, -1.840954
    7371, -1.851212
    7381, -1.861575
    7391, -1.871241
    7401, -1.879437
    7411, -1.885518
    7421, -1.889082
    7431, -1.890026
    7441, -1.888557
    7451, -1.885131
    7461, -1.880375
    7471, -1.874988
    7481, -1.869676
    7491, -1.865094
    7501, -1.861818
    7511, -1.860316
    7521, -1.860924
    7531, -1.863819
    7541, -1.868985
    7551, -1.876179
    7561, -1.884899
    7571, -1.894383
    7581, -1.903644
    7591, -1.911586
    7601, -1.917201
    7611, -1.919807
    7621, -1.919234
    7631, -1.915879
    7641, -1.910582
    7651, -1.904409
    7661, -1.898420
    7671, -1.893513
    7681, -1.890333
    7691, -1.889258
    7701, -1.890407
    7711, -1.893664
    7721, -1.898707
    7731, -1.905040
    7741, -1.912030
    7751, -1.918961
    7761, -1.925114
    7771, -1.929859
    7781, -1.932763
    7791, -1.933661
    7801, -1.932699
    7811, -1.930297
    7821, -1.927078
    7831, -1.923760
    7841, -1.921056
    7851, -1.919588
    7861, -1.919823
    7871, -1.922027
    7881, -1.926233
    7891, -1.932209
    7901, -1.939457
    7911, -1.947227
    7921, -1.954598
    7931, -1.960618
    7941, -1.964503
    7951, -1.965827
    7961, -1.964628
    7971, -1.961379
    7981, -1.956832
    7991, -1.951813
    8001, -1.947058
    8011, -1.943109
    8021, -1.940301
    8031, -1.938787
    8041, -1.938604
    8051, -1.939734
    8061, -1.942166
    8071, -1.945921
    8081, -1.951052
    8091, -1.957612
    8101, -1.965599
    8111, -1.974880
    8121, -1.985124
    8131, -1.995748
    8141, -2.005909
    8151, -2.014573
    8161, -2.020690
    8171, -2.023435
    8181, -2.022462
    8191, -2.018041
    8201, -2.010999
    8211, -2.002517
    8221, -1.993867
    8231, -1.986211
    8241, -1.980478
    8251, -1.977323
    8261, -1.977128
    8271, -1.980017
    8281, -1.985870
    8291, -1.994330
    8301, -2.004808
    8311, -2.016493
    8321, -2.028398
    8331, -2.039435
    8341, -2.048560
    8351, -2.054939
    8361, -2.058113
    8371, -2.058077
    8381, -2.055263
    8391, -2.050420
    8401, -2.044452
    8411, -2.038271
    8421, -2.032693
    8431, -2.028375
    8441, -2.025790
    8451, -2.025214
    8461, -2.026726
    8471, -2.030215
    8481, -2.035386
    8491, -2.041785
    8501, -2.048842
    8511, -2.055932
    8521, -2.062464
    8531, -2.067967
    8541, -2.072159
    8551, -2.074985
    8561, -2.076589
    8571, -2.077258
    8581, -2.077332
    8591, -2.077126
    8601, -2.076865
    8611, -2.076655
    8621, -2.076476
    8631, -2.076202
    8641, -2.075647
    8651, -2.074627
    8661, -2.073030
    8671, -2.070869
    8681, -2.068322
    8691, -2.065724
    8701, -2.063527
    8711, -2.062238
    8721, -2.062342
    8731, -2.064224
    8741, -2.068108
    8751, -2.073988
    8761, -2.081578
    8771, -2.090282
    8781, -2.099191
    8791, -2.107163
    8801, -2.113005
    8811, -2.115749
    8821, -2.114940
    8831, -2.110800
    8841, -2.104176
    8851, -2.096302
    8861, -2.088487
    8871, -2.081871
    8881, -2.077270
    8891, -2.075115
    8901, -2.075440
    8911, -2.077887
    8921, -2.081755
    8931, -2.086071
    8941, -2.089742
    8951, -2.091782
    8961, -2.091556
    8971, -2.088978
    8981, -2.084537
    8991, -2.079165
    9001, -2.073993
    9011, -2.070104
    9021, -2.068360
    9031, -2.069291
    9041, -2.073043
    9051, -2.079343
    9061, -2.087493
    9071, -2.096396
    9081, -2.104665
    9091, -2.110850
    9101, -2.113774
    9111, -2.112875
    9121, -2.108386
    9131, -2.101237
    9141, -2.092760
    9151, -2.084337
    9161, -2.077154
    9171, -2.072072
    9181, -2.069602
    9191, -2.069925
    9201, -2.072933
    9211, -2.078260
    9221, -2.085317
    9231, -2.093325
    9241, -2.101377
    9251, -2.108524
    9261, -2.113902
    9271, -2.116871
    9281, -2.117139
    9291, -2.114812
    9301, -2.110358
    9311, -2.104498
    9321, -2.098068
    9331, -2.091889
    9341, -2.086677
    9351, -2.082993
    9361, -2.081222
    9371, -2.081569
    9381, -2.084064
    9391, -2.088569
    9401, -2.094793
    9411, -2.102304
    9421, -2.110562
    9431, -2.118962
    9441, -2.126892
    9451, -2.133808
    9461, -2.139300
    9471, -2.143138
    9481, -2.145288
    9491, -2.145885
    9501, -2.145182
    9511, -2.143482
    9521, -2.141088
    9531, -2.138253
    9541, -2.135167
    9551, -2.131950
    9561, -2.128669
    9571, -2.125366
    9581, -2.122093
    9591, -2.118951
    9601, -2.116116
    9611, -2.113862
    9621, -2.112550
    9631, -2.112606
    9641, -2.114480
    9651, -2.118584
    9661, -2.125230
    9671, -2.134547
    9681, -2.146393
    9691, -2.160252
    9701, -2.175140
    9711, -2.189566
    9721, -2.201645
    9731, -2.209441
    9741, -2.211546
    9751, -2.207622
    9761, -2.198579
    9771, -2.186245
    9781, -2.172779
    9791, -2.160151
    9801, -2.149888
    9811, -2.143005
    9821, -2.140058
    9831, -2.141206
    9841, -2.146267
    9851, -2.154740
    9861, -2.165822
    9871, -2.178434
    9881, -2.191293
    9891, -2.203073
    9901, -2.212634
    9911, -2.219280
    9921, -2.222914
    9931, -2.224015
    9941, -2.223444
    9951, -2.222163
    9961, -2.221001
    9971, -2.220510
    9981, -2.220924
    9991, -2.222199
   10001, -2.224096
   10011, -2.226300
   10021, -2.228538
   10031, -2.230672
   10041, -2.232737
   10051, -2.234912
   10061, -2.237448
   10071, -2.240559
   10081, -2.244334
   10091, -2.248674
   10101, -2.253292
   10111, -2.257765
   10121, -2.261647
   10131, -2.264601
   10141, -2.266525
   10151, -2.267603
   10161, -2.268273
   10171, -2.269114
   10181, -2.270701
   10191, -2.273467
   10201, -2.277602
   10211, -2.283000
   10221, -2.289256
   10231, -2.295718
   10241, -2.301605
   10251, -2.306167
   10261, -2.308870
   10271, -2.309533
   10281, -2.308366
   10291, -2.305896
   10301, -2.302813
   10311, -2.299817
   10321, -2.297492
   10331, -2.296252
   10341, -2.296321
   10351, -2.297763
   10361, -2.300516
   10371, -2.304427
   10381, -2.309288
   10391, -2.314848
   10401, -2.320822
   10411, -2.326886
   10421, -2.332676
   10431, -2.337806
   10441, -2.341898
   10451, -2.344645
   10461, -2.345886
   10471, -2.345659
   10481, -2.344234
   10491, -2.342079
   10501, -2.339796
   10511, -2.338025
   10521, -2.337350
   10531, -2.338217
   10541, -2.340873
   10551, -2.345316
   10561, -2.351260
   10571, -2.358119
   10581, -2.365026
   10591, -2.370920
   10601, -2.374720
   10611, -2.375567
   10621, -2.373079
   10631, -2.367496
   10641, -2.359641
   10651, -2.350719
   10661, -2.342069
   10671, -2.334944
   10681, -2.330382
   10691, -2.329150
   10701, -2.331721
   10711, -2.338265
   10721, -2.348613
   10731, -2.362198
   10741, -2.377969
   10751, -2.394319
   10761, -2.409125
   10771, -2.420018
   10781, -2.424966
   10791, -2.422973
   10801, -2.414496
   10811, -2.401250
   10821, -2.385568
   10831, -2.369747
   10841, -2.355671
   10851, -2.344709
   10861, -2.337773
   10871, -2.335410
   10881, -2.337892
   10891, -2.345243
   10901, -2.357237
   10911, -2.373322
   10921, -2.392512
   10931, -2.413236
   10941, -2.433246
   10951, -2.449751
   10961, -2.459953
   10971, -2.461968
   10981, -2.455645
   10991, -2.442633
   11001, -2.425642
   11011, -2.407486
   11021, -2.390468
   11031, -2.376194
   11041, -2.365636
   11051, -2.359280
   11061, -2.357246
   11071, -2.359383
   11081, -2.365313
   11091, -2.374453
   11101, -2.386028
   11111, -2.399083
   11121, -2.412530
   11131, -2.425235
   11141, -2.436154
   11151, -2.444489
   11161, -2.449818
   11171, -2.452143
   11181, -2.451825
   11191, -2.449450
   11201, -2.445667
   11211, -2.441057
   11221, -2.436063
   11231, -2.430965
   11241, -2.425896
   11251, -2.420884
   11261, -2.415905
   11271, -2.410936
   11281, -2.406001
   11291, -2.401205
   11301, -2.396746
   11311, -2.392904
   11321, -2.390022
   11331, -2.388472
   11341, -2.388611
   11351, -2.390752
   11361, -2.395122
   11371, -2.401824
   11381, -2.410797
   11391, -2.421764
   11401, -2.434178
   11411, -2.447170
   11421, -2.459538
   11431, -2.469818
   11441, -2.476492
   11451, -2.478333
   11461, -2.474778
   11471, -2.466138
   11481, -2.453517
   11491, -2.438489
   11501, -2.422729
   11511, -2.407729
   11521, -2.394674
   11531, -2.384425
   11541, -2.377547
   11551, -2.374370
   11561, -2.375022
   11571, -2.379461
   11581, -2.387481
   11591, -2.398712
   11601, -2.412602
   11611, -2.428402
   11621, -2.445151
   11631, -2.461697
   11641, -2.476754
   11651, -2.489021
   11661, -2.497351
   11671, -2.500944
   11681, -2.499487
   11691, -2.493198
   11701, -2.482757
   11711, -2.469169
   11721, -2.453605
   11731, -2.437266
   11741, -2.421299
   11751, -2.406741
   11761, -2.394502
   11771, -2.385358
   11781, -2.379957
   11791, -2.378820
   11801, -2.382346
   11811, -2.390784
   11821, -2.404197
   11831, -2.422367
   11841, -2.444641
   11851, -2.469709
   11861, -2.495339
   11871, -2.518260
   11881, -2.534536
   11891, -2.540774
   11901, -2.535721
   11911, -2.520994
   11921, -2.500193
   11931, -2.477286
   11941, -2.455501
   11951, -2.437027
   11961, -2.423157
   11971, -2.414543
   11981, -2.411405
   11991, -2.413652
   12001, -2.420929
   12011, -2.432611
   12021, -2.447754
   12031, -2.465045
   12041, -2.482787
   12051, -2.499002
   12061, -2.511733
   12071, -2.519504
   12081, -2.521773
   12091, -2.519088
   12101, -2.512848
   12111, -2.504822
   12121, -2.496696
   12131, -2.489811
   12141, -2.485078
   12151, -2.482994
   12161, -2.483698
   12171, -2.487021
   12181, -2.492520
   12191, -2.499512
   12201, -2.507112
   12211, -2.514309
   12221, -2.520088
   12231, -2.523599
   12241, -2.524336
   12251, -2.522258
   12261, -2.517799
   12271, -2.511763
   12281, -2.505152
   12291, -2.498994
   12301, -2.494218
   12311, -2.491581
   12321, -2.491635
   12331, -2.494721
   12341, -2.500963
   12351, -2.510252
   12361, -2.522222
   12371, -2.536218
   12381, -2.551273
   12391, -2.566124
   12401, -2.579320
   12411, -2.589440
   12421, -2.595405
   12431, -2.596766
   12441, -2.593822
   12451, -2.587493
   12461, -2.579030
   12471, -2.569702
   12481, -2.560587
   12491, -2.552478
   12501, -2.545876
   12511, -2.541038
   12521, -2.538027
   12531, -2.536779
   12541, -2.537146
   12551, -2.538944
   12561, -2.541984
   12571, -2.546096
   12581, -2.551145
   12591, -2.557027
   12601, -2.563672
   12611, -2.571018
   12621, -2.578995
   12631, -2.587500
   12641, -2.596368
   12651, -2.605355
   12661, -2.614127
   12671, -2.622260
   12681, -2.629270
   12691, -2.634658
   12701, -2.637983
   12711, -2.638944
   12721, -2.637442
   12731, -2.633621
   12741, -2.627843
   12751, -2.620641
   12761, -2.612641
   12771, -2.604482
   12781, -2.596760
   12791, -2.589991
   12801, -2.584598
   12811, -2.580900
   12821, -2.579127
   12831, -2.579416
   12841, -2.581822
   12851, -2.586315
   12861, -2.592775
   12871, -2.600979
   12881, -2.610597
   12891, -2.621180
   12901, -2.632169
   12911, -2.642915
   12921, -2.652739
   12931, -2.661015
   12941, -2.667268
   12951, -2.671256
   12961, -2.673014
   12971, -2.672817
   12981, -2.671098
   12991, -2.668334
   13001, -2.664933
   13011, -2.661161
   13021, -2.657109
   13031, -2.652707
   13041, -2.647776
   13051, -2.642109
   13061, -2.635568
   13071, -2.628167
   13081, -2.620121
   13091, -2.611847
   13101, -2.603926
   13111, -2.597029
   13121, -2.591850
   13131, -2.589039
   13141, -2.589162
   13151, -2.592667
   13161, -2.599861
   13171, -2.610875
   13181, -2.625614
   13191, -2.643669
   13201, -2.664201
   13211, -2.685789
   13221, -2.706331
   13231, -2.723133
   13241, -2.733372
   13251, -2.734978
   13261, -2.727488
   13271, -2.712266
   13281, -2.691864
   13291, -2.669090
   13301, -2.646329
   13311, -2.625311
   13321, -2.607154
   13331, -2.592505
   13341, -2.581689
   13351, -2.574810
   13361, -2.571821
   13371, -2.572559
   13381, -2.576765
   13391, -2.584079
   13401, -2.594035
   13411, -2.606052
   13421, -2.619435
   13431, -2.633388
   13441, -2.647058
   13451, -2.659600
   13461, -2.670274
   13471, -2.678522
   13481, -2.684027
   13491, -2.686710
   13501, -2.686676
   13511, -2.684145
   13521, -2.679375
   13531, -2.672636
   13541, -2.664207
   13551, -2.654402
   13561, -2.643600
   13571, -2.632263
   13581, -2.620928
   13591, -2.610176
   13601, -2.600597
   13611, -2.592741
   13621, -2.587091
   13631, -2.584027
   13641, -2.583807
   13651, -2.586550
   13661, -2.592206
   13671, -2.600538
   13681, -2.611080
   13691, -2.623123
   13701, -2.635701
   13711, -2.647650
   13721, -2.657735
   13731, -2.664867
   13741, -2.668363
   13751, -2.668126
   13761, -2.664668
   13771, -2.658955
   13781, -2.652152
   13791, -2.645385
   13801, -2.639579
   13811, -2.635378
   13821, -2.633132
   13831, -2.632906
   13841, -2.634508
   13851, -2.637521
   13861, -2.641349
   13871, -2.645286
   13881, -2.648618
   13891, -2.650737
   13901, -2.651267
   13911, -2.650141
   13921, -2.647610
   13931, -2.644184
   13941, -2.640512
   13951, -2.637267
   13961, -2.635042
   13971, -2.634276
   13981, -2.635224
   13991, -2.637941
   14001, -2.642286
   14011, -2.647945
   14021, -2.654462
   14031, -2.661298
   14041, -2.667902
   14051, -2.673802
   14061, -2.678678
   14071, -2.682412
   14081, -2.685084
   14091, -2.686926
   14101, -2.688239
   14111, -2.689300
   14121, -2.690294
   14131, -2.691274
   14141, -2.692154
   14151, -2.692750
   14161, -2.692836
   14171, -2.692230
   14181, -2.690866
   14191, -2.688842
   14201, -2.686435
   14211, -2.684060
   14221, -2.682208
   14231, -2.681372
   14241, -2.681972
   14251, -2.684297
   14261, -2.688464
   14271, -2.694384
   14281, -2.701750
   14291, -2.710032
   14301, -2.718513
   14311, -2.726358
   14321, -2.732741
   14331, -2.736996
   14341, -2.738777
   14351, -2.738143
   14361, -2.735544
   14371, -2.731716
   14381, -2.727525
   14391, -2.723821
   14401, -2.721332
   14411, -2.720606
   14421, -2.721988
   14431, -2.725617
   14441, -2.731419
   14451, -2.739113
   14461, -2.748209
   14471, -2.758013
   14481, -2.767664
   14491, -2.776207
   14501, -2.782718
   14511, -2.786476
   14521, -2.787114
   14531, -2.784716
   14541, -2.779800
   14551, -2.773194
   14561, -2.765874
   14571, -2.758815
   14581, -2.752875
   14591, -2.748751
   14601, -2.746956
   14611, -2.747823
   14621, -2.751507
   14631, -2.757989
   14641, -2.767065
   14651, -2.778322
   14661, -2.791128
   14671, -2.804610
   14681, -2.817691
   14691, -2.829179
   14701, -2.837934
   14711, -2.843102
   14721, -2.844317
   14731, -2.841794
   14741, -2.836259
   14751, -2.828745
   14761, -2.820366
   14771, -2.812139
   14781, -2.804882
   14791, -2.799187
   14801, -2.795426
   14811, -2.793785
   14821, -2.794290
   14831, -2.796832
   14841, -2.801189
   14851, -2.807035
   14861, -2.813956
   14871, -2.821463
   14881, -2.829017
   14891, -2.836060
   14901, -2.842072
   14911, -2.846617
   14921, -2.849412
   14931, -2.850357
   14941, -2.849555
   14951, -2.847292
   14961, -2.843987